 Entering Gaussian System, Link 0=g16
 Input=methylazulene_opt_ICSS_XY_1.gjf
 Output=methylazulene_opt_ICSS_XY_1.log
 Initial command:
 /home/wangzhe/g16/l1.exe "/home/wangzhe/g16/Scratch/Gau-182511.inp" -scrdir="/home/wangzhe/g16/Scratch/"
 Default is to use a total of  16 processors:
                               16 via shared-memory
                                1 via Linda
 Entering Link 1 = /home/wangzhe/g16/l1.exe PID=    182514.
  
 Copyright (c) 1988-2017, Gaussian, Inc.  All Rights Reserved.
  
 This is part of the Gaussian(R) 16 program.  It is based on
 the Gaussian(R) 09 system (copyright 2009, Gaussian, Inc.),
 the Gaussian(R) 03 system (copyright 2003, Gaussian, Inc.),
 the Gaussian(R) 98 system (copyright 1998, Gaussian, Inc.),
 the Gaussian(R) 94 system (copyright 1995, Gaussian, Inc.),
 the Gaussian 92(TM) system (copyright 1992, Gaussian, Inc.),
 the Gaussian 90(TM) system (copyright 1990, Gaussian, Inc.),
 the Gaussian 88(TM) system (copyright 1988, Gaussian, Inc.),
 the Gaussian 86(TM) system (copyright 1986, Carnegie Mellon
 University), and the Gaussian 82(TM) system (copyright 1983,
 Carnegie Mellon University). Gaussian is a federally registered
 trademark of Gaussian, Inc.
  
 This software contains proprietary and confidential information,
 including trade secrets, belonging to Gaussian, Inc.
  
 This software is provided under written license and may be
 used, copied, transmitted, or stored only in accord with that
 written license.
  
 The following legend is applicable only to US Government
 contracts under FAR:
  
                    RESTRICTED RIGHTS LEGEND
  
 Use, reproduction and disclosure by the US Government is
 subject to restrictions as set forth in subparagraphs (a)
 and (c) of the Commercial Computer Software - Restricted
 Rights clause in FAR 52.227-19.
  
 Gaussian, Inc.
 340 Quinnipiac St., Bldg. 40, Wallingford CT 06492
  
  
 ---------------------------------------------------------------
 Warning -- This program may not be used in any manner that
 competes with the business of Gaussian, Inc. or will provide
 assistance to any competitor of Gaussian, Inc.  The licensee
 of this program is prohibited from giving any competitor of
 Gaussian, Inc. access to this program.  By using this program,
 the user acknowledges that Gaussian, Inc. is engaged in the
 business of creating and licensing software in the field of
 computational chemistry and represents and warrants to the
 licensee that it is not a competitor of Gaussian, Inc. and that
 it will not use this program in any manner prohibited above.
 ---------------------------------------------------------------
  

 Cite this work as:
 Gaussian 16, Revision B.01,
 M. J. Frisch, G. W. Trucks, H. B. Schlegel, G. E. Scuseria, 
 M. A. Robb, J. R. Cheeseman, G. Scalmani, V. Barone, 
 G. A. Petersson, H. Nakatsuji, X. Li, M. Caricato, A. V. Marenich, 
 J. Bloino, B. G. Janesko, R. Gomperts, B. Mennucci, H. P. Hratchian, 
 J. V. Ortiz, A. F. Izmaylov, J. L. Sonnenberg, D. Williams-Young, 
 F. Ding, F. Lipparini, F. Egidi, J. Goings, B. Peng, A. Petrone, 
 T. Henderson, D. Ranasinghe, V. G. Zakrzewski, J. Gao, N. Rega, 
 G. Zheng, W. Liang, M. Hada, M. Ehara, K. Toyota, R. Fukuda, 
 J. Hasegawa, M. Ishida, T. Nakajima, Y. Honda, O. Kitao, H. Nakai, 
 T. Vreven, K. Throssell, J. A. Montgomery, Jr., J. E. Peralta, 
 F. Ogliaro, M. J. Bearpark, J. J. Heyd, E. N. Brothers, K. N. Kudin, 
 V. N. Staroverov, T. A. Keith, R. Kobayashi, J. Normand, 
 K. Raghavachari, A. P. Rendell, J. C. Burant, S. S. Iyengar, 
 J. Tomasi, M. Cossi, J. M. Millam, M. Klene, C. Adamo, R. Cammi, 
 J. W. Ochterski, R. L. Martin, K. Morokuma, O. Farkas, 
 J. B. Foresman, and D. J. Fox, Gaussian, Inc., Wallingford CT, 2016.
 
 ******************************************
 Gaussian 16:  ES64L-G16RevB.01 20-Dec-2017
                28-May-2021 
 ******************************************
 %nprocshared=8
 Will use up to    8 processors via shared memory.
 %mem=10GB
 %chk=methylazulene_opt.chk
 ----------------------------------------------
 #p nmr=giao rb3lyp/6-31+g(d) geom=connectivity
 ----------------------------------------------
 1/38=1,57=2,172=1/1;
 2/12=2,17=6,18=5,40=1/2;
 3/5=1,6=6,7=11,11=2,25=1,30=1,74=-5,116=1/1,2,3,8;
 4//1;
 5/5=2,38=5/2;
 8/6=1,10=90,11=11/1;
 10/13=100,45=16/2;
 6/7=2,8=2,9=2,10=2,28=1/1;
 99/9=1/99;
 Leave Link    1 at Fri May 28 13:39:25 2021, MaxMem=  1342177280 cpu:               0.2 elap:               0.0
 (Enter /home/wangzhe/g16/l101.exe)
 ----------------------------------------------------------------------
 /Users/wangzhe/Desktop/methylazulene_opt_ICSS_XY_1//Created_by_ICSSgen
 ----------------------------------------------------------------------
 Symbolic Z-matrix:
 Charge =  0 Multiplicity = 1
 C                    -2.68122  -0.69594   0.00003 
 H                    -3.70025  -1.07886   0.00004 
 C                    -2.57389   0.69577   0.00012 
 H                    -3.51455   1.24088   0.0002 
 C                    -1.42188   1.47672   0.00012 
 H                    -1.57995   2.55485   0.00014 
 C                    -0.09126   1.07521   0.00002 
 C                     1.02154   1.92054  -0.00007 
 H                     0.98652   3.00303  -0.00011 
 C                     2.17511   1.1262   -0.00016 
 H                     3.1925    1.505    -0.00026 
 C                     1.8423   -0.23366   0.00008 
 C                     0.43671  -0.32326  -0.00015 
 C                    -1.68554  -1.66885  -0.00009 
 H                    -2.03235  -2.69928  -0.0001 
 C                    -0.30028  -1.49721  -0.00018 
 H                     0.28392  -2.41707  -0.0002 
 C                     2.80571  -1.38304   0.00022 
 H                     2.68121  -2.02129   0.88362 
 H                     2.68123  -2.02145  -0.88307 
 H                     3.83788  -1.02067   0.0002 
 Bq                   -7.       -6.        1. 
 Bq                   -7.       -5.8       1. 
 Bq                   -7.       -5.6       1. 
 Bq                   -7.       -5.4       1. 
 Bq                   -7.       -5.2       1. 
 Bq                   -7.       -5.        1. 
 Bq                   -7.       -4.8       1. 
 Bq                   -7.       -4.6       1. 
 Bq                   -7.       -4.4       1. 
 Bq                   -7.       -4.2       1. 
 Bq                   -7.       -4.        1. 
 Bq                   -7.       -3.8       1. 
 Bq                   -7.       -3.6       1. 
 Bq                   -7.       -3.4       1. 
 Bq                   -7.       -3.2       1. 
 Bq                   -7.       -3.        1. 
 Bq                   -7.       -2.8       1. 
 Bq                   -7.       -2.6       1. 
 Bq                   -7.       -2.4       1. 
 Bq                   -7.       -2.2       1. 
 Bq                   -7.       -2.        1. 
 Bq                   -7.       -1.8       1. 
 Bq                   -7.       -1.6       1. 
 Bq                   -7.       -1.4       1. 
 Bq                   -7.       -1.2       1. 
 Bq                   -7.       -1.        1. 
 Bq                   -7.       -0.8       1. 
 Bq                   -7.       -0.6       1. 
 Bq                   -7.       -0.4       1. 
 Bq                   -7.       -0.2       1. 
 Bq                   -7.        0.        1. 
 Bq                   -7.        0.2       1. 
 Bq                   -7.        0.4       1. 
 Bq                   -7.        0.6       1. 
 Bq                   -7.        0.8       1. 
 Bq                   -7.        1.        1. 
 Bq                   -7.        1.2       1. 
 Bq                   -7.        1.4       1. 
 Bq                   -7.        1.6       1. 
 Bq                   -7.        1.8       1. 
 Bq                   -7.        2.        1. 
 Bq                   -7.        2.2       1. 
 Bq                   -7.        2.4       1. 
 Bq                   -7.        2.6       1. 
 Bq                   -7.        2.8       1. 
 Bq                   -7.        3.        1. 
 Bq                   -7.        3.2       1. 
 Bq                   -7.        3.4       1. 
 Bq                   -7.        3.6       1. 
 Bq                   -7.        3.8       1. 
 Bq                   -7.        4.        1. 
 Bq                   -7.        4.2       1. 
 Bq                   -7.        4.4       1. 
 Bq                   -7.        4.6       1. 
 Bq                   -7.        4.8       1. 
 Bq                   -7.        5.        1. 
 Bq                   -7.        5.2       1. 
 Bq                   -7.        5.4       1. 
 Bq                   -7.        5.6       1. 
 Bq                   -7.        5.8       1. 
 Bq                   -7.        6.        1. 
 Bq                   -6.8      -6.        1. 
 Bq                   -6.8      -5.8       1. 
 Bq                   -6.8      -5.6       1. 
 Bq                   -6.8      -5.4       1. 
 Bq                   -6.8      -5.2       1. 
 Bq                   -6.8      -5.        1. 
 Bq                   -6.8      -4.8       1. 
 Bq                   -6.8      -4.6       1. 
 Bq                   -6.8      -4.4       1. 
 Bq                   -6.8      -4.2       1. 
 Bq                   -6.8      -4.        1. 
 Bq                   -6.8      -3.8       1. 
 Bq                   -6.8      -3.6       1. 
 Bq                   -6.8      -3.4       1. 
 Bq                   -6.8      -3.2       1. 
 Bq                   -6.8      -3.        1. 
 Bq                   -6.8      -2.8       1. 
 Bq                   -6.8      -2.6       1. 
 Bq                   -6.8      -2.4       1. 
 Bq                   -6.8      -2.2       1. 
 Bq                   -6.8      -2.        1. 
 Bq                   -6.8      -1.8       1. 
 Bq                   -6.8      -1.6       1. 
 Bq                   -6.8      -1.4       1. 
 Bq                   -6.8      -1.2       1. 
 Bq                   -6.8      -1.        1. 
 Bq                   -6.8      -0.8       1. 
 Bq                   -6.8      -0.6       1. 
 Bq                   -6.8      -0.4       1. 
 Bq                   -6.8      -0.2       1. 
 Bq                   -6.8       0.        1. 
 Bq                   -6.8       0.2       1. 
 Bq                   -6.8       0.4       1. 
 Bq                   -6.8       0.6       1. 
 Bq                   -6.8       0.8       1. 
 Bq                   -6.8       1.        1. 
 Bq                   -6.8       1.2       1. 
 Bq                   -6.8       1.4       1. 
 Bq                   -6.8       1.6       1. 
 Bq                   -6.8       1.8       1. 
 Bq                   -6.8       2.        1. 
 Bq                   -6.8       2.2       1. 
 Bq                   -6.8       2.4       1. 
 Bq                   -6.8       2.6       1. 
 Bq                   -6.8       2.8       1. 
 Bq                   -6.8       3.        1. 
 Bq                   -6.8       3.2       1. 
 Bq                   -6.8       3.4       1. 
 Bq                   -6.8       3.6       1. 
 Bq                   -6.8       3.8       1. 
 Bq                   -6.8       4.        1. 
 Bq                   -6.8       4.2       1. 
 Bq                   -6.8       4.4       1. 
 Bq                   -6.8       4.6       1. 
 Bq                   -6.8       4.8       1. 
 Bq                   -6.8       5.        1. 
 Bq                   -6.8       5.2       1. 
 Bq                   -6.8       5.4       1. 
 Bq                   -6.8       5.6       1. 
 Bq                   -6.8       5.8       1. 
 Bq                   -6.8       6.        1. 
 Bq                   -6.6      -6.        1. 
 Bq                   -6.6      -5.8       1. 
 Bq                   -6.6      -5.6       1. 
 Bq                   -6.6      -5.4       1. 
 Bq                   -6.6      -5.2       1. 
 Bq                   -6.6      -5.        1. 
 Bq                   -6.6      -4.8       1. 
 Bq                   -6.6      -4.6       1. 
 Bq                   -6.6      -4.4       1. 
 Bq                   -6.6      -4.2       1. 
 Bq                   -6.6      -4.        1. 
 Bq                   -6.6      -3.8       1. 
 Bq                   -6.6      -3.6       1. 
 Bq                   -6.6      -3.4       1. 
 Bq                   -6.6      -3.2       1. 
 Bq                   -6.6      -3.        1. 
 Bq                   -6.6      -2.8       1. 
 Bq                   -6.6      -2.6       1. 
 Bq                   -6.6      -2.4       1. 
 Bq                   -6.6      -2.2       1. 
 Bq                   -6.6      -2.        1. 
 Bq                   -6.6      -1.8       1. 
 Bq                   -6.6      -1.6       1. 
 Bq                   -6.6      -1.4       1. 
 Bq                   -6.6      -1.2       1. 
 Bq                   -6.6      -1.        1. 
 Bq                   -6.6      -0.8       1. 
 Bq                   -6.6      -0.6       1. 
 Bq                   -6.6      -0.4       1. 
 Bq                   -6.6      -0.2       1. 
 Bq                   -6.6       0.        1. 
 Bq                   -6.6       0.2       1. 
 Bq                   -6.6       0.4       1. 
 Bq                   -6.6       0.6       1. 
 Bq                   -6.6       0.8       1. 
 Bq                   -6.6       1.        1. 
 Bq                   -6.6       1.2       1. 
 Bq                   -6.6       1.4       1. 
 Bq                   -6.6       1.6       1. 
 Bq                   -6.6       1.8       1. 
 Bq                   -6.6       2.        1. 
 Bq                   -6.6       2.2       1. 
 Bq                   -6.6       2.4       1. 
 Bq                   -6.6       2.6       1. 
 Bq                   -6.6       2.8       1. 
 Bq                   -6.6       3.        1. 
 Bq                   -6.6       3.2       1. 
 Bq                   -6.6       3.4       1. 
 Bq                   -6.6       3.6       1. 
 Bq                   -6.6       3.8       1. 
 Bq                   -6.6       4.        1. 
 Bq                   -6.6       4.2       1. 
 Bq                   -6.6       4.4       1. 
 Bq                   -6.6       4.6       1. 
 Bq                   -6.6       4.8       1. 
 Bq                   -6.6       5.        1. 
 Bq                   -6.6       5.2       1. 
 Bq                   -6.6       5.4       1. 
 Bq                   -6.6       5.6       1. 
 Bq                   -6.6       5.8       1. 
 Bq                   -6.6       6.        1. 
 Bq                   -6.4      -6.        1. 
 Bq                   -6.4      -5.8       1. 
 Bq                   -6.4      -5.6       1. 
 Bq                   -6.4      -5.4       1. 
 Bq                   -6.4      -5.2       1. 
 Bq                   -6.4      -5.        1. 
 Bq                   -6.4      -4.8       1. 
 Bq                   -6.4      -4.6       1. 
 Bq                   -6.4      -4.4       1. 
 Bq                   -6.4      -4.2       1. 
 Bq                   -6.4      -4.        1. 
 Bq                   -6.4      -3.8       1. 
 Bq                   -6.4      -3.6       1. 
 Bq                   -6.4      -3.4       1. 
 Bq                   -6.4      -3.2       1. 
 Bq                   -6.4      -3.        1. 
 Bq                   -6.4      -2.8       1. 
 Bq                   -6.4      -2.6       1. 
 Bq                   -6.4      -2.4       1. 
 Bq                   -6.4      -2.2       1. 
 Bq                   -6.4      -2.        1. 
 Bq                   -6.4      -1.8       1. 
 Bq                   -6.4      -1.6       1. 
 Bq                   -6.4      -1.4       1. 
 Bq                   -6.4      -1.2       1. 
 Bq                   -6.4      -1.        1. 
 Bq                   -6.4      -0.8       1. 
 Bq                   -6.4      -0.6       1. 
 Bq                   -6.4      -0.4       1. 
 Bq                   -6.4      -0.2       1. 
 Bq                   -6.4       0.        1. 
 Bq                   -6.4       0.2       1. 
 Bq                   -6.4       0.4       1. 
 Bq                   -6.4       0.6       1. 
 Bq                   -6.4       0.8       1. 
 Bq                   -6.4       1.        1. 
 Bq                   -6.4       1.2       1. 
 Bq                   -6.4       1.4       1. 
 Bq                   -6.4       1.6       1. 
 Bq                   -6.4       1.8       1. 
 Bq                   -6.4       2.        1. 
 Bq                   -6.4       2.2       1. 
 Bq                   -6.4       2.4       1. 
 Bq                   -6.4       2.6       1. 
 Bq                   -6.4       2.8       1. 
 Bq                   -6.4       3.        1. 
 Bq                   -6.4       3.2       1. 
 Bq                   -6.4       3.4       1. 
 Bq                   -6.4       3.6       1. 
 Bq                   -6.4       3.8       1. 
 Bq                   -6.4       4.        1. 
 Bq                   -6.4       4.2       1. 
 Bq                   -6.4       4.4       1. 
 Bq                   -6.4       4.6       1. 
 Bq                   -6.4       4.8       1. 
 Bq                   -6.4       5.        1. 
 Bq                   -6.4       5.2       1. 
 Bq                   -6.4       5.4       1. 
 Bq                   -6.4       5.6       1. 
 Bq                   -6.4       5.8       1. 
 Bq                   -6.4       6.        1. 
 Bq                   -6.2      -6.        1. 
 Bq                   -6.2      -5.8       1. 
 Bq                   -6.2      -5.6       1. 
 Bq                   -6.2      -5.4       1. 
 Bq                   -6.2      -5.2       1. 
 Bq                   -6.2      -5.        1. 
 Bq                   -6.2      -4.8       1. 
 Bq                   -6.2      -4.6       1. 
 Bq                   -6.2      -4.4       1. 
 Bq                   -6.2      -4.2       1. 
 Bq                   -6.2      -4.        1. 
 Bq                   -6.2      -3.8       1. 
 Bq                   -6.2      -3.6       1. 
 Bq                   -6.2      -3.4       1. 
 Bq                   -6.2      -3.2       1. 
 Bq                   -6.2      -3.        1. 
 Bq                   -6.2      -2.8       1. 
 Bq                   -6.2      -2.6       1. 
 Bq                   -6.2      -2.4       1. 
 Bq                   -6.2      -2.2       1. 
 Bq                   -6.2      -2.        1. 
 Bq                   -6.2      -1.8       1. 
 Bq                   -6.2      -1.6       1. 
 Bq                   -6.2      -1.4       1. 
 Bq                   -6.2      -1.2       1. 
 Bq                   -6.2      -1.        1. 
 Bq                   -6.2      -0.8       1. 
 Bq                   -6.2      -0.6       1. 
 Bq                   -6.2      -0.4       1. 
 Bq                   -6.2      -0.2       1. 
 Bq                   -6.2       0.        1. 
 Bq                   -6.2       0.2       1. 
 Bq                   -6.2       0.4       1. 
 Bq                   -6.2       0.6       1. 
 Bq                   -6.2       0.8       1. 
 Bq                   -6.2       1.        1. 
 Bq                   -6.2       1.2       1. 
 Bq                   -6.2       1.4       1. 
 Bq                   -6.2       1.6       1. 
 Bq                   -6.2       1.8       1. 
 Bq                   -6.2       2.        1. 
 Bq                   -6.2       2.2       1. 
 Bq                   -6.2       2.4       1. 
 Bq                   -6.2       2.6       1. 
 Bq                   -6.2       2.8       1. 
 Bq                   -6.2       3.        1. 
 Bq                   -6.2       3.2       1. 
 Bq                   -6.2       3.4       1. 
 Bq                   -6.2       3.6       1. 
 Bq                   -6.2       3.8       1. 
 Bq                   -6.2       4.        1. 
 Bq                   -6.2       4.2       1. 
 Bq                   -6.2       4.4       1. 
 Bq                   -6.2       4.6       1. 
 Bq                   -6.2       4.8       1. 
 Bq                   -6.2       5.        1. 
 Bq                   -6.2       5.2       1. 
 Bq                   -6.2       5.4       1. 
 Bq                   -6.2       5.6       1. 
 Bq                   -6.2       5.8       1. 
 Bq                   -6.2       6.        1. 
 Bq                   -6.       -6.        1. 
 Bq                   -6.       -5.8       1. 
 Bq                   -6.       -5.6       1. 
 Bq                   -6.       -5.4       1. 
 Bq                   -6.       -5.2       1. 
 Bq                   -6.       -5.        1. 
 Bq                   -6.       -4.8       1. 
 Bq                   -6.       -4.6       1. 
 Bq                   -6.       -4.4       1. 
 Bq                   -6.       -4.2       1. 
 Bq                   -6.       -4.        1. 
 Bq                   -6.       -3.8       1. 
 Bq                   -6.       -3.6       1. 
 Bq                   -6.       -3.4       1. 
 Bq                   -6.       -3.2       1. 
 Bq                   -6.       -3.        1. 
 Bq                   -6.       -2.8       1. 
 Bq                   -6.       -2.6       1. 
 Bq                   -6.       -2.4       1. 
 Bq                   -6.       -2.2       1. 
 Bq                   -6.       -2.        1. 
 Bq                   -6.       -1.8       1. 
 Bq                   -6.       -1.6       1. 
 Bq                   -6.       -1.4       1. 
 Bq                   -6.       -1.2       1. 
 Bq                   -6.       -1.        1. 
 Bq                   -6.       -0.8       1. 
 Bq                   -6.       -0.6       1. 
 Bq                   -6.       -0.4       1. 
 Bq                   -6.       -0.2       1. 
 Bq                   -6.        0.        1. 
 Bq                   -6.        0.2       1. 
 Bq                   -6.        0.4       1. 
 Bq                   -6.        0.6       1. 
 Bq                   -6.        0.8       1. 
 Bq                   -6.        1.        1. 
 Bq                   -6.        1.2       1. 
 Bq                   -6.        1.4       1. 
 Bq                   -6.        1.6       1. 
 Bq                   -6.        1.8       1. 
 Bq                   -6.        2.        1. 
 Bq                   -6.        2.2       1. 
 Bq                   -6.        2.4       1. 
 Bq                   -6.        2.6       1. 
 Bq                   -6.        2.8       1. 
 Bq                   -6.        3.        1. 
 Bq                   -6.        3.2       1. 
 Bq                   -6.        3.4       1. 
 Bq                   -6.        3.6       1. 
 Bq                   -6.        3.8       1. 
 Bq                   -6.        4.        1. 
 Bq                   -6.        4.2       1. 
 Bq                   -6.        4.4       1. 
 Bq                   -6.        4.6       1. 
 Bq                   -6.        4.8       1. 
 Bq                   -6.        5.        1. 
 Bq                   -6.        5.2       1. 
 Bq                   -6.        5.4       1. 
 Bq                   -6.        5.6       1. 
 Bq                   -6.        5.8       1. 
 Bq                   -6.        6.        1. 
 Bq                   -5.8      -6.        1. 
 Bq                   -5.8      -5.8       1. 
 Bq                   -5.8      -5.6       1. 
 Bq                   -5.8      -5.4       1. 
 Bq                   -5.8      -5.2       1. 
 Bq                   -5.8      -5.        1. 
 Bq                   -5.8      -4.8       1. 
 Bq                   -5.8      -4.6       1. 
 Bq                   -5.8      -4.4       1. 
 Bq                   -5.8      -4.2       1. 
 Bq                   -5.8      -4.        1. 
 Bq                   -5.8      -3.8       1. 
 Bq                   -5.8      -3.6       1. 
 Bq                   -5.8      -3.4       1. 
 Bq                   -5.8      -3.2       1. 
 Bq                   -5.8      -3.        1. 
 Bq                   -5.8      -2.8       1. 
 Bq                   -5.8      -2.6       1. 
 Bq                   -5.8      -2.4       1. 
 Bq                   -5.8      -2.2       1. 
 Bq                   -5.8      -2.        1. 
 Bq                   -5.8      -1.8       1. 
 Bq                   -5.8      -1.6       1. 
 Bq                   -5.8      -1.4       1. 
 Bq                   -5.8      -1.2       1. 
 Bq                   -5.8      -1.        1. 
 Bq                   -5.8      -0.8       1. 
 Bq                   -5.8      -0.6       1. 
 Bq                   -5.8      -0.4       1. 
 Bq                   -5.8      -0.2       1. 
 Bq                   -5.8       0.        1. 
 Bq                   -5.8       0.2       1. 
 Bq                   -5.8       0.4       1. 
 Bq                   -5.8       0.6       1. 
 Bq                   -5.8       0.8       1. 
 Bq                   -5.8       1.        1. 
 Bq                   -5.8       1.2       1. 
 Bq                   -5.8       1.4       1. 
 Bq                   -5.8       1.6       1. 
 Bq                   -5.8       1.8       1. 
 Bq                   -5.8       2.        1. 
 Bq                   -5.8       2.2       1. 
 Bq                   -5.8       2.4       1. 
 Bq                   -5.8       2.6       1. 
 Bq                   -5.8       2.8       1. 
 Bq                   -5.8       3.        1. 
 Bq                   -5.8       3.2       1. 
 Bq                   -5.8       3.4       1. 
 Bq                   -5.8       3.6       1. 
 Bq                   -5.8       3.8       1. 
 Bq                   -5.8       4.        1. 
 Bq                   -5.8       4.2       1. 
 Bq                   -5.8       4.4       1. 
 Bq                   -5.8       4.6       1. 
 Bq                   -5.8       4.8       1. 
 Bq                   -5.8       5.        1. 
 Bq                   -5.8       5.2       1. 
 Bq                   -5.8       5.4       1. 
 Bq                   -5.8       5.6       1. 
 Bq                   -5.8       5.8       1. 
 Bq                   -5.8       6.        1. 
 Bq                   -5.6      -6.        1. 
 Bq                   -5.6      -5.8       1. 
 Bq                   -5.6      -5.6       1. 
 Bq                   -5.6      -5.4       1. 
 Bq                   -5.6      -5.2       1. 
 Bq                   -5.6      -5.        1. 
 Bq                   -5.6      -4.8       1. 
 Bq                   -5.6      -4.6       1. 
 Bq                   -5.6      -4.4       1. 
 Bq                   -5.6      -4.2       1. 
 Bq                   -5.6      -4.        1. 
 Bq                   -5.6      -3.8       1. 
 Bq                   -5.6      -3.6       1. 
 Bq                   -5.6      -3.4       1. 
 Bq                   -5.6      -3.2       1. 
 Bq                   -5.6      -3.        1. 
 Bq                   -5.6      -2.8       1. 
 Bq                   -5.6      -2.6       1. 
 Bq                   -5.6      -2.4       1. 
 Bq                   -5.6      -2.2       1. 
 Bq                   -5.6      -2.        1. 
 Bq                   -5.6      -1.8       1. 
 Bq                   -5.6      -1.6       1. 
 Bq                   -5.6      -1.4       1. 
 Bq                   -5.6      -1.2       1. 
 Bq                   -5.6      -1.        1. 
 Bq                   -5.6      -0.8       1. 
 Bq                   -5.6      -0.6       1. 
 Bq                   -5.6      -0.4       1. 
 Bq                   -5.6      -0.2       1. 
 Bq                   -5.6       0.        1. 
 Bq                   -5.6       0.2       1. 
 Bq                   -5.6       0.4       1. 
 Bq                   -5.6       0.6       1. 
 Bq                   -5.6       0.8       1. 
 Bq                   -5.6       1.        1. 
 Bq                   -5.6       1.2       1. 
 Bq                   -5.6       1.4       1. 
 Bq                   -5.6       1.6       1. 
 Bq                   -5.6       1.8       1. 
 Bq                   -5.6       2.        1. 
 Bq                   -5.6       2.2       1. 
 Bq                   -5.6       2.4       1. 
 Bq                   -5.6       2.6       1. 
 Bq                   -5.6       2.8       1. 
 Bq                   -5.6       3.        1. 
 Bq                   -5.6       3.2       1. 
 Bq                   -5.6       3.4       1. 
 Bq                   -5.6       3.6       1. 
 Bq                   -5.6       3.8       1. 
 Bq                   -5.6       4.        1. 
 Bq                   -5.6       4.2       1. 
 Bq                   -5.6       4.4       1. 
 Bq                   -5.6       4.6       1. 
 Bq                   -5.6       4.8       1. 
 Bq                   -5.6       5.        1. 
 Bq                   -5.6       5.2       1. 
 Bq                   -5.6       5.4       1. 
 Bq                   -5.6       5.6       1. 
 Bq                   -5.6       5.8       1. 
 Bq                   -5.6       6.        1. 
 Bq                   -5.4      -6.        1. 
 Bq                   -5.4      -5.8       1. 
 Bq                   -5.4      -5.6       1. 
 Bq                   -5.4      -5.4       1. 
 Bq                   -5.4      -5.2       1. 
 Bq                   -5.4      -5.        1. 
 Bq                   -5.4      -4.8       1. 
 Bq                   -5.4      -4.6       1. 
 Bq                   -5.4      -4.4       1. 
 Bq                   -5.4      -4.2       1. 
 Bq                   -5.4      -4.        1. 
 Bq                   -5.4      -3.8       1. 
 Bq                   -5.4      -3.6       1. 
 Bq                   -5.4      -3.4       1. 
 Bq                   -5.4      -3.2       1. 
 Bq                   -5.4      -3.        1. 
 Bq                   -5.4      -2.8       1. 
 Bq                   -5.4      -2.6       1. 
 Bq                   -5.4      -2.4       1. 
 Bq                   -5.4      -2.2       1. 
 Bq                   -5.4      -2.        1. 
 Bq                   -5.4      -1.8       1. 
 Bq                   -5.4      -1.6       1. 
 Bq                   -5.4      -1.4       1. 
 Bq                   -5.4      -1.2       1. 
 Bq                   -5.4      -1.        1. 
 Bq                   -5.4      -0.8       1. 
 Bq                   -5.4      -0.6       1. 
 Bq                   -5.4      -0.4       1. 
 Bq                   -5.4      -0.2       1. 
 Bq                   -5.4       0.        1. 
 Bq                   -5.4       0.2       1. 
 Bq                   -5.4       0.4       1. 
 Bq                   -5.4       0.6       1. 
 Bq                   -5.4       0.8       1. 
 Bq                   -5.4       1.        1. 
 Bq                   -5.4       1.2       1. 
 Bq                   -5.4       1.4       1. 
 Bq                   -5.4       1.6       1. 
 Bq                   -5.4       1.8       1. 
 Bq                   -5.4       2.        1. 
 Bq                   -5.4       2.2       1. 
 Bq                   -5.4       2.4       1. 
 Bq                   -5.4       2.6       1. 
 Bq                   -5.4       2.8       1. 
 Bq                   -5.4       3.        1. 
 Bq                   -5.4       3.2       1. 
 Bq                   -5.4       3.4       1. 
 Bq                   -5.4       3.6       1. 
 Bq                   -5.4       3.8       1. 
 Bq                   -5.4       4.        1. 
 Bq                   -5.4       4.2       1. 
 Bq                   -5.4       4.4       1. 
 Bq                   -5.4       4.6       1. 
 Bq                   -5.4       4.8       1. 
 Bq                   -5.4       5.        1. 
 Bq                   -5.4       5.2       1. 
 Bq                   -5.4       5.4       1. 
 Bq                   -5.4       5.6       1. 
 Bq                   -5.4       5.8       1. 
 Bq                   -5.4       6.        1. 
 Bq                   -5.2      -6.        1. 
 Bq                   -5.2      -5.8       1. 
 Bq                   -5.2      -5.6       1. 
 Bq                   -5.2      -5.4       1. 
 Bq                   -5.2      -5.2       1. 
 Bq                   -5.2      -5.        1. 
 Bq                   -5.2      -4.8       1. 
 Bq                   -5.2      -4.6       1. 
 Bq                   -5.2      -4.4       1. 
 Bq                   -5.2      -4.2       1. 
 Bq                   -5.2      -4.        1. 
 Bq                   -5.2      -3.8       1. 
 Bq                   -5.2      -3.6       1. 
 Bq                   -5.2      -3.4       1. 
 Bq                   -5.2      -3.2       1. 
 Bq                   -5.2      -3.        1. 
 Bq                   -5.2      -2.8       1. 
 Bq                   -5.2      -2.6       1. 
 Bq                   -5.2      -2.4       1. 
 Bq                   -5.2      -2.2       1. 
 Bq                   -5.2      -2.        1. 
 Bq                   -5.2      -1.8       1. 
 Bq                   -5.2      -1.6       1. 
 Bq                   -5.2      -1.4       1. 
 Bq                   -5.2      -1.2       1. 
 Bq                   -5.2      -1.        1. 
 Bq                   -5.2      -0.8       1. 
 Bq                   -5.2      -0.6       1. 
 Bq                   -5.2      -0.4       1. 
 Bq                   -5.2      -0.2       1. 
 Bq                   -5.2       0.        1. 
 Bq                   -5.2       0.2       1. 
 Bq                   -5.2       0.4       1. 
 Bq                   -5.2       0.6       1. 
 Bq                   -5.2       0.8       1. 
 Bq                   -5.2       1.        1. 
 Bq                   -5.2       1.2       1. 
 Bq                   -5.2       1.4       1. 
 Bq                   -5.2       1.6       1. 
 Bq                   -5.2       1.8       1. 
 Bq                   -5.2       2.        1. 
 Bq                   -5.2       2.2       1. 
 Bq                   -5.2       2.4       1. 
 Bq                   -5.2       2.6       1. 
 Bq                   -5.2       2.8       1. 
 Bq                   -5.2       3.        1. 
 Bq                   -5.2       3.2       1. 
 Bq                   -5.2       3.4       1. 
 Bq                   -5.2       3.6       1. 
 Bq                   -5.2       3.8       1. 
 Bq                   -5.2       4.        1. 
 Bq                   -5.2       4.2       1. 
 Bq                   -5.2       4.4       1. 
 Bq                   -5.2       4.6       1. 
 Bq                   -5.2       4.8       1. 
 Bq                   -5.2       5.        1. 
 Bq                   -5.2       5.2       1. 
 Bq                   -5.2       5.4       1. 
 Bq                   -5.2       5.6       1. 
 Bq                   -5.2       5.8       1. 
 Bq                   -5.2       6.        1. 
 Bq                   -5.       -6.        1. 
 Bq                   -5.       -5.8       1. 
 Bq                   -5.       -5.6       1. 
 Bq                   -5.       -5.4       1. 
 Bq                   -5.       -5.2       1. 
 Bq                   -5.       -5.        1. 
 Bq                   -5.       -4.8       1. 
 Bq                   -5.       -4.6       1. 
 Bq                   -5.       -4.4       1. 
 Bq                   -5.       -4.2       1. 
 Bq                   -5.       -4.        1. 
 Bq                   -5.       -3.8       1. 
 Bq                   -5.       -3.6       1. 
 Bq                   -5.       -3.4       1. 
 Bq                   -5.       -3.2       1. 
 Bq                   -5.       -3.        1. 
 Bq                   -5.       -2.8       1. 
 Bq                   -5.       -2.6       1. 
 Bq                   -5.       -2.4       1. 
 Bq                   -5.       -2.2       1. 
 Bq                   -5.       -2.        1. 
 Bq                   -5.       -1.8       1. 
 Bq                   -5.       -1.6       1. 
 Bq                   -5.       -1.4       1. 
 Bq                   -5.       -1.2       1. 
 Bq                   -5.       -1.        1. 
 Bq                   -5.       -0.8       1. 
 Bq                   -5.       -0.6       1. 
 Bq                   -5.       -0.4       1. 
 Bq                   -5.       -0.2       1. 
 Bq                   -5.        0.        1. 
 Bq                   -5.        0.2       1. 
 Bq                   -5.        0.4       1. 
 Bq                   -5.        0.6       1. 
 Bq                   -5.        0.8       1. 
 Bq                   -5.        1.        1. 
 Bq                   -5.        1.2       1. 
 Bq                   -5.        1.4       1. 
 Bq                   -5.        1.6       1. 
 Bq                   -5.        1.8       1. 
 Bq                   -5.        2.        1. 
 Bq                   -5.        2.2       1. 
 Bq                   -5.        2.4       1. 
 Bq                   -5.        2.6       1. 
 Bq                   -5.        2.8       1. 
 Bq                   -5.        3.        1. 
 Bq                   -5.        3.2       1. 
 Bq                   -5.        3.4       1. 
 Bq                   -5.        3.6       1. 
 Bq                   -5.        3.8       1. 
 Bq                   -5.        4.        1. 
 Bq                   -5.        4.2       1. 
 Bq                   -5.        4.4       1. 
 Bq                   -5.        4.6       1. 
 Bq                   -5.        4.8       1. 
 Bq                   -5.        5.        1. 
 Bq                   -5.        5.2       1. 
 Bq                   -5.        5.4       1. 
 Bq                   -5.        5.6       1. 
 Bq                   -5.        5.8       1. 
 Bq                   -5.        6.        1. 
 Bq                   -4.8      -6.        1. 
 Bq                   -4.8      -5.8       1. 
 Bq                   -4.8      -5.6       1. 
 Bq                   -4.8      -5.4       1. 
 Bq                   -4.8      -5.2       1. 
 Bq                   -4.8      -5.        1. 
 Bq                   -4.8      -4.8       1. 
 Bq                   -4.8      -4.6       1. 
 Bq                   -4.8      -4.4       1. 
 Bq                   -4.8      -4.2       1. 
 Bq                   -4.8      -4.        1. 
 Bq                   -4.8      -3.8       1. 
 Bq                   -4.8      -3.6       1. 
 Bq                   -4.8      -3.4       1. 
 Bq                   -4.8      -3.2       1. 
 Bq                   -4.8      -3.        1. 
 Bq                   -4.8      -2.8       1. 
 Bq                   -4.8      -2.6       1. 
 Bq                   -4.8      -2.4       1. 
 Bq                   -4.8      -2.2       1. 
 Bq                   -4.8      -2.        1. 
 Bq                   -4.8      -1.8       1. 
 Bq                   -4.8      -1.6       1. 
 Bq                   -4.8      -1.4       1. 
 Bq                   -4.8      -1.2       1. 
 Bq                   -4.8      -1.        1. 
 Bq                   -4.8      -0.8       1. 
 Bq                   -4.8      -0.6       1. 
 Bq                   -4.8      -0.4       1. 
 Bq                   -4.8      -0.2       1. 
 Bq                   -4.8       0.        1. 
 Bq                   -4.8       0.2       1. 
 Bq                   -4.8       0.4       1. 
 Bq                   -4.8       0.6       1. 
 Bq                   -4.8       0.8       1. 
 Bq                   -4.8       1.        1. 
 Bq                   -4.8       1.2       1. 
 Bq                   -4.8       1.4       1. 
 Bq                   -4.8       1.6       1. 
 Bq                   -4.8       1.8       1. 
 Bq                   -4.8       2.        1. 
 Bq                   -4.8       2.2       1. 
 Bq                   -4.8       2.4       1. 
 Bq                   -4.8       2.6       1. 
 Bq                   -4.8       2.8       1. 
 Bq                   -4.8       3.        1. 
 Bq                   -4.8       3.2       1. 
 Bq                   -4.8       3.4       1. 
 Bq                   -4.8       3.6       1. 
 Bq                   -4.8       3.8       1. 
 Bq                   -4.8       4.        1. 
 Bq                   -4.8       4.2       1. 
 Bq                   -4.8       4.4       1. 
 Bq                   -4.8       4.6       1. 
 Bq                   -4.8       4.8       1. 
 Bq                   -4.8       5.        1. 
 Bq                   -4.8       5.2       1. 
 Bq                   -4.8       5.4       1. 
 Bq                   -4.8       5.6       1. 
 Bq                   -4.8       5.8       1. 
 Bq                   -4.8       6.        1. 
 Bq                   -4.6      -6.        1. 
 Bq                   -4.6      -5.8       1. 
 Bq                   -4.6      -5.6       1. 
 Bq                   -4.6      -5.4       1. 
 Bq                   -4.6      -5.2       1. 
 Bq                   -4.6      -5.        1. 
 Bq                   -4.6      -4.8       1. 
 Bq                   -4.6      -4.6       1. 
 Bq                   -4.6      -4.4       1. 
 Bq                   -4.6      -4.2       1. 
 Bq                   -4.6      -4.        1. 
 Bq                   -4.6      -3.8       1. 
 Bq                   -4.6      -3.6       1. 
 Bq                   -4.6      -3.4       1. 
 Bq                   -4.6      -3.2       1. 
 Bq                   -4.6      -3.        1. 
 Bq                   -4.6      -2.8       1. 
 Bq                   -4.6      -2.6       1. 
 Bq                   -4.6      -2.4       1. 
 Bq                   -4.6      -2.2       1. 
 Bq                   -4.6      -2.        1. 
 Bq                   -4.6      -1.8       1. 
 Bq                   -4.6      -1.6       1. 
 Bq                   -4.6      -1.4       1. 
 Bq                   -4.6      -1.2       1. 
 Bq                   -4.6      -1.        1. 
 Bq                   -4.6      -0.8       1. 
 Bq                   -4.6      -0.6       1. 
 Bq                   -4.6      -0.4       1. 
 Bq                   -4.6      -0.2       1. 
 Bq                   -4.6       0.        1. 
 Bq                   -4.6       0.2       1. 
 Bq                   -4.6       0.4       1. 
 Bq                   -4.6       0.6       1. 
 Bq                   -4.6       0.8       1. 
 Bq                   -4.6       1.        1. 
 Bq                   -4.6       1.2       1. 
 Bq                   -4.6       1.4       1. 
 Bq                   -4.6       1.6       1. 
 Bq                   -4.6       1.8       1. 
 Bq                   -4.6       2.        1. 
 Bq                   -4.6       2.2       1. 
 Bq                   -4.6       2.4       1. 
 Bq                   -4.6       2.6       1. 
 Bq                   -4.6       2.8       1. 
 Bq                   -4.6       3.        1. 
 Bq                   -4.6       3.2       1. 
 Bq                   -4.6       3.4       1. 
 Bq                   -4.6       3.6       1. 
 Bq                   -4.6       3.8       1. 
 Bq                   -4.6       4.        1. 
 Bq                   -4.6       4.2       1. 
 Bq                   -4.6       4.4       1. 
 Bq                   -4.6       4.6       1. 
 Bq                   -4.6       4.8       1. 
 Bq                   -4.6       5.        1. 
 Bq                   -4.6       5.2       1. 
 Bq                   -4.6       5.4       1. 
 Bq                   -4.6       5.6       1. 
 Bq                   -4.6       5.8       1. 
 Bq                   -4.6       6.        1. 
 Bq                   -4.4      -6.        1. 
 Bq                   -4.4      -5.8       1. 
 Bq                   -4.4      -5.6       1. 
 Bq                   -4.4      -5.4       1. 
 Bq                   -4.4      -5.2       1. 
 Bq                   -4.4      -5.        1. 
 Bq                   -4.4      -4.8       1. 
 Bq                   -4.4      -4.6       1. 
 Bq                   -4.4      -4.4       1. 
 Bq                   -4.4      -4.2       1. 
 Bq                   -4.4      -4.        1. 
 Bq                   -4.4      -3.8       1. 
 Bq                   -4.4      -3.6       1. 
 Bq                   -4.4      -3.4       1. 
 Bq                   -4.4      -3.2       1. 
 Bq                   -4.4      -3.        1. 
 Bq                   -4.4      -2.8       1. 
 Bq                   -4.4      -2.6       1. 
 Bq                   -4.4      -2.4       1. 
 Bq                   -4.4      -2.2       1. 
 Bq                   -4.4      -2.        1. 
 Bq                   -4.4      -1.8       1. 
 Bq                   -4.4      -1.6       1. 
 Bq                   -4.4      -1.4       1. 
 Bq                   -4.4      -1.2       1. 
 Bq                   -4.4      -1.        1. 
 Bq                   -4.4      -0.8       1. 
 Bq                   -4.4      -0.6       1. 
 Bq                   -4.4      -0.4       1. 
 Bq                   -4.4      -0.2       1. 
 Bq                   -4.4       0.        1. 
 Bq                   -4.4       0.2       1. 
 Bq                   -4.4       0.4       1. 
 Bq                   -4.4       0.6       1. 
 Bq                   -4.4       0.8       1. 
 Bq                   -4.4       1.        1. 
 Bq                   -4.4       1.2       1. 
 Bq                   -4.4       1.4       1. 
 Bq                   -4.4       1.6       1. 
 Bq                   -4.4       1.8       1. 
 Bq                   -4.4       2.        1. 
 Bq                   -4.4       2.2       1. 
 Bq                   -4.4       2.4       1. 
 Bq                   -4.4       2.6       1. 
 Bq                   -4.4       2.8       1. 
 Bq                   -4.4       3.        1. 
 Bq                   -4.4       3.2       1. 
 Bq                   -4.4       3.4       1. 
 Bq                   -4.4       3.6       1. 
 Bq                   -4.4       3.8       1. 
 Bq                   -4.4       4.        1. 
 Bq                   -4.4       4.2       1. 
 Bq                   -4.4       4.4       1. 
 Bq                   -4.4       4.6       1. 
 Bq                   -4.4       4.8       1. 
 Bq                   -4.4       5.        1. 
 Bq                   -4.4       5.2       1. 
 Bq                   -4.4       5.4       1. 
 Bq                   -4.4       5.6       1. 
 Bq                   -4.4       5.8       1. 
 Bq                   -4.4       6.        1. 
 Bq                   -4.2      -6.        1. 
 Bq                   -4.2      -5.8       1. 
 Bq                   -4.2      -5.6       1. 
 Bq                   -4.2      -5.4       1. 
 Bq                   -4.2      -5.2       1. 
 Bq                   -4.2      -5.        1. 
 Bq                   -4.2      -4.8       1. 
 Bq                   -4.2      -4.6       1. 
 Bq                   -4.2      -4.4       1. 
 Bq                   -4.2      -4.2       1. 
 Bq                   -4.2      -4.        1. 
 Bq                   -4.2      -3.8       1. 
 Bq                   -4.2      -3.6       1. 
 Bq                   -4.2      -3.4       1. 
 Bq                   -4.2      -3.2       1. 
 Bq                   -4.2      -3.        1. 
 Bq                   -4.2      -2.8       1. 
 Bq                   -4.2      -2.6       1. 
 Bq                   -4.2      -2.4       1. 
 Bq                   -4.2      -2.2       1. 
 Bq                   -4.2      -2.        1. 
 Bq                   -4.2      -1.8       1. 
 Bq                   -4.2      -1.6       1. 
 Bq                   -4.2      -1.4       1. 
 Bq                   -4.2      -1.2       1. 
 Bq                   -4.2      -1.        1. 
 Bq                   -4.2      -0.8       1. 
 Bq                   -4.2      -0.6       1. 
 Bq                   -4.2      -0.4       1. 
 Bq                   -4.2      -0.2       1. 
 Bq                   -4.2       0.        1. 
 Bq                   -4.2       0.2       1. 
 Bq                   -4.2       0.4       1. 
 Bq                   -4.2       0.6       1. 
 Bq                   -4.2       0.8       1. 
 Bq                   -4.2       1.        1. 
 Bq                   -4.2       1.2       1. 
 Bq                   -4.2       1.4       1. 
 Bq                   -4.2       1.6       1. 
 Bq                   -4.2       1.8       1. 
 Bq                   -4.2       2.        1. 
 Bq                   -4.2       2.2       1. 
 Bq                   -4.2       2.4       1. 
 Bq                   -4.2       2.6       1. 
 Bq                   -4.2       2.8       1. 
 Bq                   -4.2       3.        1. 
 Bq                   -4.2       3.2       1. 
 Bq                   -4.2       3.4       1. 
 Bq                   -4.2       3.6       1. 
 Bq                   -4.2       3.8       1. 
 Bq                   -4.2       4.        1. 
 Bq                   -4.2       4.2       1. 
 Bq                   -4.2       4.4       1. 
 Bq                   -4.2       4.6       1. 
 Bq                   -4.2       4.8       1. 
 Bq                   -4.2       5.        1. 
 Bq                   -4.2       5.2       1. 
 Bq                   -4.2       5.4       1. 
 Bq                   -4.2       5.6       1. 
 Bq                   -4.2       5.8       1. 
 Bq                   -4.2       6.        1. 
 Bq                   -4.       -6.        1. 
 Bq                   -4.       -5.8       1. 
 Bq                   -4.       -5.6       1. 
 Bq                   -4.       -5.4       1. 
 Bq                   -4.       -5.2       1. 
 Bq                   -4.       -5.        1. 
 Bq                   -4.       -4.8       1. 
 Bq                   -4.       -4.6       1. 
 Bq                   -4.       -4.4       1. 
 Bq                   -4.       -4.2       1. 
 Bq                   -4.       -4.        1. 
 Bq                   -4.       -3.8       1. 
 Bq                   -4.       -3.6       1. 
 Bq                   -4.       -3.4       1. 
 Bq                   -4.       -3.2       1. 
 Bq                   -4.       -3.        1. 
 Bq                   -4.       -2.8       1. 
 Bq                   -4.       -2.6       1. 
 Bq                   -4.       -2.4       1. 
 Bq                   -4.       -2.2       1. 
 Bq                   -4.       -2.        1. 
 Bq                   -4.       -1.8       1. 
 Bq                   -4.       -1.6       1. 
 Bq                   -4.       -1.4       1. 
 Bq                   -4.       -1.2       1. 
 Bq                   -4.       -1.        1. 
 Bq                   -4.       -0.8       1. 
 Bq                   -4.       -0.6       1. 
 Bq                   -4.       -0.4       1. 
 Bq                   -4.       -0.2       1. 
 Bq                   -4.        0.        1. 
 Bq                   -4.        0.2       1. 
 Bq                   -4.        0.4       1. 
 Bq                   -4.        0.6       1. 
 Bq                   -4.        0.8       1. 
 Bq                   -4.        1.        1. 
 Bq                   -4.        1.2       1. 
 Bq                   -4.        1.4       1. 
 Bq                   -4.        1.6       1. 
 Bq                   -4.        1.8       1. 
 Bq                   -4.        2.        1. 
 Bq                   -4.        2.2       1. 
 Bq                   -4.        2.4       1. 
 Bq                   -4.        2.6       1. 
 Bq                   -4.        2.8       1. 
 Bq                   -4.        3.        1. 
 Bq                   -4.        3.2       1. 
 Bq                   -4.        3.4       1. 
 Bq                   -4.        3.6       1. 
 Bq                   -4.        3.8       1. 
 Bq                   -4.        4.        1. 
 Bq                   -4.        4.2       1. 
 Bq                   -4.        4.4       1. 
 Bq                   -4.        4.6       1. 
 Bq                   -4.        4.8       1. 
 Bq                   -4.        5.        1. 
 Bq                   -4.        5.2       1. 
 Bq                   -4.        5.4       1. 
 Bq                   -4.        5.6       1. 
 Bq                   -4.        5.8       1. 
 Bq                   -4.        6.        1. 
 Bq                   -3.8      -6.        1. 
 Bq                   -3.8      -5.8       1. 
 Bq                   -3.8      -5.6       1. 
 Bq                   -3.8      -5.4       1. 
 Bq                   -3.8      -5.2       1. 
 Bq                   -3.8      -5.        1. 
 Bq                   -3.8      -4.8       1. 
 Bq                   -3.8      -4.6       1. 
 Bq                   -3.8      -4.4       1. 
 Bq                   -3.8      -4.2       1. 
 Bq                   -3.8      -4.        1. 
 Bq                   -3.8      -3.8       1. 
 Bq                   -3.8      -3.6       1. 
 Bq                   -3.8      -3.4       1. 
 Bq                   -3.8      -3.2       1. 
 Bq                   -3.8      -3.        1. 
 Bq                   -3.8      -2.8       1. 
 Bq                   -3.8      -2.6       1. 
 Bq                   -3.8      -2.4       1. 
 Bq                   -3.8      -2.2       1. 
 Bq                   -3.8      -2.        1. 
 Bq                   -3.8      -1.8       1. 
 Bq                   -3.8      -1.6       1. 
 Bq                   -3.8      -1.4       1. 
 Bq                   -3.8      -1.2       1. 
 Bq                   -3.8      -1.        1. 
 Bq                   -3.8      -0.8       1. 
 Bq                   -3.8      -0.6       1. 
 Bq                   -3.8      -0.4       1. 
 Bq                   -3.8      -0.2       1. 
 Bq                   -3.8       0.        1. 
 Bq                   -3.8       0.2       1. 
 Bq                   -3.8       0.4       1. 
 Bq                   -3.8       0.6       1. 
 Bq                   -3.8       0.8       1. 
 Bq                   -3.8       1.        1. 
 Bq                   -3.8       1.2       1. 
 Bq                   -3.8       1.4       1. 
 Bq                   -3.8       1.6       1. 
 Bq                   -3.8       1.8       1. 
 Bq                   -3.8       2.        1. 
 Bq                   -3.8       2.2       1. 
 Bq                   -3.8       2.4       1. 
 Bq                   -3.8       2.6       1. 
 Bq                   -3.8       2.8       1. 
 Bq                   -3.8       3.        1. 
 Bq                   -3.8       3.2       1. 
 Bq                   -3.8       3.4       1. 
 Bq                   -3.8       3.6       1. 
 Bq                   -3.8       3.8       1. 
 Bq                   -3.8       4.        1. 
 Bq                   -3.8       4.2       1. 
 Bq                   -3.8       4.4       1. 
 Bq                   -3.8       4.6       1. 
 Bq                   -3.8       4.8       1. 
 Bq                   -3.8       5.        1. 
 Bq                   -3.8       5.2       1. 
 Bq                   -3.8       5.4       1. 
 Bq                   -3.8       5.6       1. 
 Bq                   -3.8       5.8       1. 
 Bq                   -3.8       6.        1. 
 Bq                   -3.6      -6.        1. 
 Bq                   -3.6      -5.8       1. 
 Bq                   -3.6      -5.6       1. 
 Bq                   -3.6      -5.4       1. 
 Bq                   -3.6      -5.2       1. 
 Bq                   -3.6      -5.        1. 
 Bq                   -3.6      -4.8       1. 
 Bq                   -3.6      -4.6       1. 
 Bq                   -3.6      -4.4       1. 
 Bq                   -3.6      -4.2       1. 
 Bq                   -3.6      -4.        1. 
 Bq                   -3.6      -3.8       1. 
 Bq                   -3.6      -3.6       1. 
 Bq                   -3.6      -3.4       1. 
 Bq                   -3.6      -3.2       1. 
 Bq                   -3.6      -3.        1. 
 Bq                   -3.6      -2.8       1. 
 Bq                   -3.6      -2.6       1. 
 Bq                   -3.6      -2.4       1. 
 Bq                   -3.6      -2.2       1. 
 Bq                   -3.6      -2.        1. 
 Bq                   -3.6      -1.8       1. 
 Bq                   -3.6      -1.6       1. 
 Bq                   -3.6      -1.4       1. 
 Bq                   -3.6      -1.2       1. 
 Bq                   -3.6      -1.        1. 
 Bq                   -3.6      -0.8       1. 
 Bq                   -3.6      -0.6       1. 
 Bq                   -3.6      -0.4       1. 
 Bq                   -3.6      -0.2       1. 
 Bq                   -3.6       0.        1. 
 Bq                   -3.6       0.2       1. 
 Bq                   -3.6       0.4       1. 
 Bq                   -3.6       0.6       1. 
 Bq                   -3.6       0.8       1. 
 Bq                   -3.6       1.        1. 
 Bq                   -3.6       1.2       1. 
 Bq                   -3.6       1.4       1. 
 Bq                   -3.6       1.6       1. 
 Bq                   -3.6       1.8       1. 
 Bq                   -3.6       2.        1. 
 Bq                   -3.6       2.2       1. 
 Bq                   -3.6       2.4       1. 
 Bq                   -3.6       2.6       1. 
 Bq                   -3.6       2.8       1. 
 Bq                   -3.6       3.        1. 
 Bq                   -3.6       3.2       1. 
 Bq                   -3.6       3.4       1. 
 Bq                   -3.6       3.6       1. 
 Bq                   -3.6       3.8       1. 
 Bq                   -3.6       4.        1. 
 Bq                   -3.6       4.2       1. 
 Bq                   -3.6       4.4       1. 
 Bq                   -3.6       4.6       1. 
 Bq                   -3.6       4.8       1. 
 Bq                   -3.6       5.        1. 
 Bq                   -3.6       5.2       1. 
 Bq                   -3.6       5.4       1. 
 Bq                   -3.6       5.6       1. 
 Bq                   -3.6       5.8       1. 
 Bq                   -3.6       6.        1. 
 Bq                   -3.4      -6.        1. 
 Bq                   -3.4      -5.8       1. 
 Bq                   -3.4      -5.6       1. 
 Bq                   -3.4      -5.4       1. 
 Bq                   -3.4      -5.2       1. 
 Bq                   -3.4      -5.        1. 
 Bq                   -3.4      -4.8       1. 
 Bq                   -3.4      -4.6       1. 
 Bq                   -3.4      -4.4       1. 
 Bq                   -3.4      -4.2       1. 
 Bq                   -3.4      -4.        1. 
 Bq                   -3.4      -3.8       1. 
 Bq                   -3.4      -3.6       1. 
 Bq                   -3.4      -3.4       1. 
 Bq                   -3.4      -3.2       1. 
 Bq                   -3.4      -3.        1. 
 Bq                   -3.4      -2.8       1. 
 Bq                   -3.4      -2.6       1. 
 Bq                   -3.4      -2.4       1. 
 Bq                   -3.4      -2.2       1. 
 Bq                   -3.4      -2.        1. 
 Bq                   -3.4      -1.8       1. 
 Bq                   -3.4      -1.6       1. 
 Bq                   -3.4      -1.4       1. 
 Bq                   -3.4      -1.2       1. 
 Bq                   -3.4      -1.        1. 
 Bq                   -3.4      -0.8       1. 
 Bq                   -3.4      -0.6       1. 
 Bq                   -3.4      -0.4       1. 
 Bq                   -3.4      -0.2       1. 
 Bq                   -3.4       0.        1. 
 Bq                   -3.4       0.2       1. 
 Bq                   -3.4       0.4       1. 
 Bq                   -3.4       0.6       1. 
 Bq                   -3.4       0.8       1. 
 Bq                   -3.4       1.        1. 
 Bq                   -3.4       1.2       1. 
 Bq                   -3.4       1.4       1. 
 Bq                   -3.4       1.6       1. 
 Bq                   -3.4       1.8       1. 
 Bq                   -3.4       2.        1. 
 Bq                   -3.4       2.2       1. 
 Bq                   -3.4       2.4       1. 
 Bq                   -3.4       2.6       1. 
 Bq                   -3.4       2.8       1. 
 Bq                   -3.4       3.        1. 
 Bq                   -3.4       3.2       1. 
 Bq                   -3.4       3.4       1. 
 Bq                   -3.4       3.6       1. 
 Bq                   -3.4       3.8       1. 
 Bq                   -3.4       4.        1. 
 Bq                   -3.4       4.2       1. 
 Bq                   -3.4       4.4       1. 
 Bq                   -3.4       4.6       1. 
 Bq                   -3.4       4.8       1. 
 Bq                   -3.4       5.        1. 
 Bq                   -3.4       5.2       1. 
 Bq                   -3.4       5.4       1. 
 Bq                   -3.4       5.6       1. 
 Bq                   -3.4       5.8       1. 
 Bq                   -3.4       6.        1. 
 Bq                   -3.2      -6.        1. 
 Bq                   -3.2      -5.8       1. 
 Bq                   -3.2      -5.6       1. 
 Bq                   -3.2      -5.4       1. 
 Bq                   -3.2      -5.2       1. 
 Bq                   -3.2      -5.        1. 
 Bq                   -3.2      -4.8       1. 
 Bq                   -3.2      -4.6       1. 
 Bq                   -3.2      -4.4       1. 
 Bq                   -3.2      -4.2       1. 
 Bq                   -3.2      -4.        1. 
 Bq                   -3.2      -3.8       1. 
 Bq                   -3.2      -3.6       1. 
 Bq                   -3.2      -3.4       1. 
 Bq                   -3.2      -3.2       1. 
 Bq                   -3.2      -3.        1. 
 Bq                   -3.2      -2.8       1. 
 Bq                   -3.2      -2.6       1. 
 Bq                   -3.2      -2.4       1. 
 Bq                   -3.2      -2.2       1. 
 Bq                   -3.2      -2.        1. 
 Bq                   -3.2      -1.8       1. 
 Bq                   -3.2      -1.6       1. 
 Bq                   -3.2      -1.4       1. 
 Bq                   -3.2      -1.2       1. 
 Bq                   -3.2      -1.        1. 
 Bq                   -3.2      -0.8       1. 
 Bq                   -3.2      -0.6       1. 
 Bq                   -3.2      -0.4       1. 
 Bq                   -3.2      -0.2       1. 
 Bq                   -3.2       0.        1. 
 Bq                   -3.2       0.2       1. 
 Bq                   -3.2       0.4       1. 
 Bq                   -3.2       0.6       1. 
 Bq                   -3.2       0.8       1. 
 Bq                   -3.2       1.        1. 
 Bq                   -3.2       1.2       1. 
 Bq                   -3.2       1.4       1. 
 Bq                   -3.2       1.6       1. 
 Bq                   -3.2       1.8       1. 
 Bq                   -3.2       2.        1. 
 Bq                   -3.2       2.2       1. 
 Bq                   -3.2       2.4       1. 
 Bq                   -3.2       2.6       1. 
 Bq                   -3.2       2.8       1. 
 Bq                   -3.2       3.        1. 
 Bq                   -3.2       3.2       1. 
 Bq                   -3.2       3.4       1. 
 Bq                   -3.2       3.6       1. 
 Bq                   -3.2       3.8       1. 
 Bq                   -3.2       4.        1. 
 Bq                   -3.2       4.2       1. 
 Bq                   -3.2       4.4       1. 
 Bq                   -3.2       4.6       1. 
 Bq                   -3.2       4.8       1. 
 Bq                   -3.2       5.        1. 
 Bq                   -3.2       5.2       1. 
 Bq                   -3.2       5.4       1. 
 Bq                   -3.2       5.6       1. 
 Bq                   -3.2       5.8       1. 
 Bq                   -3.2       6.        1. 
 Bq                   -3.       -6.        1. 
 Bq                   -3.       -5.8       1. 
 Bq                   -3.       -5.6       1. 
 Bq                   -3.       -5.4       1. 
 Bq                   -3.       -5.2       1. 
 Bq                   -3.       -5.        1. 
 Bq                   -3.       -4.8       1. 
 Bq                   -3.       -4.6       1. 
 Bq                   -3.       -4.4       1. 
 Bq                   -3.       -4.2       1. 
 Bq                   -3.       -4.        1. 
 Bq                   -3.       -3.8       1. 
 Bq                   -3.       -3.6       1. 
 Bq                   -3.       -3.4       1. 
 Bq                   -3.       -3.2       1. 
 Bq                   -3.       -3.        1. 
 Bq                   -3.       -2.8       1. 
 Bq                   -3.       -2.6       1. 
 Bq                   -3.       -2.4       1. 
 Bq                   -3.       -2.2       1. 
 Bq                   -3.       -2.        1. 
 Bq                   -3.       -1.8       1. 
 Bq                   -3.       -1.6       1. 
 Bq                   -3.       -1.4       1. 
 Bq                   -3.       -1.2       1. 
 Bq                   -3.       -1.        1. 
 Bq                   -3.       -0.8       1. 
 Bq                   -3.       -0.6       1. 
 Bq                   -3.       -0.4       1. 
 Bq                   -3.       -0.2       1. 
 Bq                   -3.        0.        1. 
 Bq                   -3.        0.2       1. 
 Bq                   -3.        0.4       1. 
 Bq                   -3.        0.6       1. 
 Bq                   -3.        0.8       1. 
 Bq                   -3.        1.        1. 
 Bq                   -3.        1.2       1. 
 Bq                   -3.        1.4       1. 
 Bq                   -3.        1.6       1. 
 Bq                   -3.        1.8       1. 
 Bq                   -3.        2.        1. 
 Bq                   -3.        2.2       1. 
 Bq                   -3.        2.4       1. 
 Bq                   -3.        2.6       1. 
 Bq                   -3.        2.8       1. 
 Bq                   -3.        3.        1. 
 Bq                   -3.        3.2       1. 
 Bq                   -3.        3.4       1. 
 Bq                   -3.        3.6       1. 
 Bq                   -3.        3.8       1. 
 Bq                   -3.        4.        1. 
 Bq                   -3.        4.2       1. 
 Bq                   -3.        4.4       1. 
 Bq                   -3.        4.6       1. 
 Bq                   -3.        4.8       1. 
 Bq                   -3.        5.        1. 
 Bq                   -3.        5.2       1. 
 Bq                   -3.        5.4       1. 
 Bq                   -3.        5.6       1. 
 Bq                   -3.        5.8       1. 
 Bq                   -3.        6.        1. 
 Bq                   -2.8      -6.        1. 
 Bq                   -2.8      -5.8       1. 
 Bq                   -2.8      -5.6       1. 
 Bq                   -2.8      -5.4       1. 
 Bq                   -2.8      -5.2       1. 
 Bq                   -2.8      -5.        1. 
 Bq                   -2.8      -4.8       1. 
 Bq                   -2.8      -4.6       1. 
 Bq                   -2.8      -4.4       1. 
 Bq                   -2.8      -4.2       1. 
 Bq                   -2.8      -4.        1. 
 Bq                   -2.8      -3.8       1. 
 Bq                   -2.8      -3.6       1. 
 Bq                   -2.8      -3.4       1. 
 Bq                   -2.8      -3.2       1. 
 Bq                   -2.8      -3.        1. 
 Bq                   -2.8      -2.8       1. 
 Bq                   -2.8      -2.6       1. 
 Bq                   -2.8      -2.4       1. 
 Bq                   -2.8      -2.2       1. 
 Bq                   -2.8      -2.        1. 
 Bq                   -2.8      -1.8       1. 
 Bq                   -2.8      -1.6       1. 
 Bq                   -2.8      -1.4       1. 
 Bq                   -2.8      -1.2       1. 
 Bq                   -2.8      -1.        1. 
 Bq                   -2.8      -0.8       1. 
 Bq                   -2.8      -0.6       1. 
 Bq                   -2.8      -0.4       1. 
 Bq                   -2.8      -0.2       1. 
 Bq                   -2.8       0.        1. 
 Bq                   -2.8       0.2       1. 
 Bq                   -2.8       0.4       1. 
 Bq                   -2.8       0.6       1. 
 Bq                   -2.8       0.8       1. 
 Bq                   -2.8       1.        1. 
 Bq                   -2.8       1.2       1. 
 Bq                   -2.8       1.4       1. 
 Bq                   -2.8       1.6       1. 
 Bq                   -2.8       1.8       1. 
 Bq                   -2.8       2.        1. 
 Bq                   -2.8       2.2       1. 
 Bq                   -2.8       2.4       1. 
 Bq                   -2.8       2.6       1. 
 Bq                   -2.8       2.8       1. 
 Bq                   -2.8       3.        1. 
 Bq                   -2.8       3.2       1. 
 Bq                   -2.8       3.4       1. 
 Bq                   -2.8       3.6       1. 
 Bq                   -2.8       3.8       1. 
 Bq                   -2.8       4.        1. 
 Bq                   -2.8       4.2       1. 
 Bq                   -2.8       4.4       1. 
 Bq                   -2.8       4.6       1. 
 Bq                   -2.8       4.8       1. 
 Bq                   -2.8       5.        1. 
 Bq                   -2.8       5.2       1. 
 Bq                   -2.8       5.4       1. 
 Bq                   -2.8       5.6       1. 
 Bq                   -2.8       5.8       1. 
 Bq                   -2.8       6.        1. 
 Bq                   -2.6      -6.        1. 
 Bq                   -2.6      -5.8       1. 
 Bq                   -2.6      -5.6       1. 
 Bq                   -2.6      -5.4       1. 
 Bq                   -2.6      -5.2       1. 
 Bq                   -2.6      -5.        1. 
 Bq                   -2.6      -4.8       1. 
 Bq                   -2.6      -4.6       1. 
 Bq                   -2.6      -4.4       1. 
 Bq                   -2.6      -4.2       1. 
 Bq                   -2.6      -4.        1. 
 Bq                   -2.6      -3.8       1. 
 Bq                   -2.6      -3.6       1. 
 Bq                   -2.6      -3.4       1. 
 Bq                   -2.6      -3.2       1. 
 Bq                   -2.6      -3.        1. 
 Bq                   -2.6      -2.8       1. 
 Bq                   -2.6      -2.6       1. 
 Bq                   -2.6      -2.4       1. 
 Bq                   -2.6      -2.2       1. 
 Bq                   -2.6      -2.        1. 
 Bq                   -2.6      -1.8       1. 
 Bq                   -2.6      -1.6       1. 
 Bq                   -2.6      -1.4       1. 
 Bq                   -2.6      -1.2       1. 
 Bq                   -2.6      -1.        1. 
 Bq                   -2.6      -0.8       1. 
 Bq                   -2.6      -0.6       1. 
 Bq                   -2.6      -0.4       1. 
 Bq                   -2.6      -0.2       1. 
 Bq                   -2.6       0.        1. 
 Bq                   -2.6       0.2       1. 
 Bq                   -2.6       0.4       1. 
 Bq                   -2.6       0.6       1. 
 Bq                   -2.6       0.8       1. 
 Bq                   -2.6       1.        1. 
 Bq                   -2.6       1.2       1. 
 Bq                   -2.6       1.4       1. 
 Bq                   -2.6       1.6       1. 
 Bq                   -2.6       1.8       1. 
 Bq                   -2.6       2.        1. 
 Bq                   -2.6       2.2       1. 
 Bq                   -2.6       2.4       1. 
 Bq                   -2.6       2.6       1. 
 Bq                   -2.6       2.8       1. 
 Bq                   -2.6       3.        1. 
 Bq                   -2.6       3.2       1. 
 Bq                   -2.6       3.4       1. 
 Bq                   -2.6       3.6       1. 
 Bq                   -2.6       3.8       1. 
 Bq                   -2.6       4.        1. 
 Bq                   -2.6       4.2       1. 
 Bq                   -2.6       4.4       1. 
 Bq                   -2.6       4.6       1. 
 Bq                   -2.6       4.8       1. 
 Bq                   -2.6       5.        1. 
 Bq                   -2.6       5.2       1. 
 Bq                   -2.6       5.4       1. 
 Bq                   -2.6       5.6       1. 
 Bq                   -2.6       5.8       1. 
 Bq                   -2.6       6.        1. 
 Bq                   -2.4      -6.        1. 
 Bq                   -2.4      -5.8       1. 
 Bq                   -2.4      -5.6       1. 
 Bq                   -2.4      -5.4       1. 
 Bq                   -2.4      -5.2       1. 
 Bq                   -2.4      -5.        1. 
 Bq                   -2.4      -4.8       1. 
 Bq                   -2.4      -4.6       1. 
 Bq                   -2.4      -4.4       1. 
 Bq                   -2.4      -4.2       1. 
 Bq                   -2.4      -4.        1. 
 Bq                   -2.4      -3.8       1. 
 Bq                   -2.4      -3.6       1. 
 Bq                   -2.4      -3.4       1. 
 Bq                   -2.4      -3.2       1. 
 Bq                   -2.4      -3.        1. 
 Bq                   -2.4      -2.8       1. 
 Bq                   -2.4      -2.6       1. 
 Bq                   -2.4      -2.4       1. 
 Bq                   -2.4      -2.2       1. 
 Bq                   -2.4      -2.        1. 
 Bq                   -2.4      -1.8       1. 
 Bq                   -2.4      -1.6       1. 
 Bq                   -2.4      -1.4       1. 
 Bq                   -2.4      -1.2       1. 
 Bq                   -2.4      -1.        1. 
 Bq                   -2.4      -0.8       1. 
 Bq                   -2.4      -0.6       1. 
 Bq                   -2.4      -0.4       1. 
 Bq                   -2.4      -0.2       1. 
 Bq                   -2.4       0.        1. 
 Bq                   -2.4       0.2       1. 
 Bq                   -2.4       0.4       1. 
 Bq                   -2.4       0.6       1. 
 Bq                   -2.4       0.8       1. 
 Bq                   -2.4       1.        1. 
 Bq                   -2.4       1.2       1. 
 Bq                   -2.4       1.4       1. 
 Bq                   -2.4       1.6       1. 
 Bq                   -2.4       1.8       1. 
 Bq                   -2.4       2.        1. 
 Bq                   -2.4       2.2       1. 
 Bq                   -2.4       2.4       1. 
 Bq                   -2.4       2.6       1. 
 Bq                   -2.4       2.8       1. 
 Bq                   -2.4       3.        1. 
 Bq                   -2.4       3.2       1. 
 Bq                   -2.4       3.4       1. 
 Bq                   -2.4       3.6       1. 
 Bq                   -2.4       3.8       1. 
 Bq                   -2.4       4.        1. 
 Bq                   -2.4       4.2       1. 
 Bq                   -2.4       4.4       1. 
 Bq                   -2.4       4.6       1. 
 Bq                   -2.4       4.8       1. 
 Bq                   -2.4       5.        1. 
 Bq                   -2.4       5.2       1. 
 Bq                   -2.4       5.4       1. 
 Bq                   -2.4       5.6       1. 
 Bq                   -2.4       5.8       1. 
 Bq                   -2.4       6.        1. 
 Bq                   -2.2      -6.        1. 
 Bq                   -2.2      -5.8       1. 
 Bq                   -2.2      -5.6       1. 
 Bq                   -2.2      -5.4       1. 
 Bq                   -2.2      -5.2       1. 
 Bq                   -2.2      -5.        1. 
 Bq                   -2.2      -4.8       1. 
 Bq                   -2.2      -4.6       1. 
 Bq                   -2.2      -4.4       1. 
 Bq                   -2.2      -4.2       1. 
 Bq                   -2.2      -4.        1. 
 Bq                   -2.2      -3.8       1. 
 Bq                   -2.2      -3.6       1. 
 Bq                   -2.2      -3.4       1. 
 Bq                   -2.2      -3.2       1. 
 Bq                   -2.2      -3.        1. 
 Bq                   -2.2      -2.8       1. 
 Bq                   -2.2      -2.6       1. 
 Bq                   -2.2      -2.4       1. 
 Bq                   -2.2      -2.2       1. 
 Bq                   -2.2      -2.        1. 
 Bq                   -2.2      -1.8       1. 
 Bq                   -2.2      -1.6       1. 
 Bq                   -2.2      -1.4       1. 
 Bq                   -2.2      -1.2       1. 
 Bq                   -2.2      -1.        1. 
 Bq                   -2.2      -0.8       1. 
 Bq                   -2.2      -0.6       1. 
 Bq                   -2.2      -0.4       1. 
 Bq                   -2.2      -0.2       1. 
 Bq                   -2.2       0.        1. 
 Bq                   -2.2       0.2       1. 
 Bq                   -2.2       0.4       1. 
 Bq                   -2.2       0.6       1. 
 Bq                   -2.2       0.8       1. 
 Bq                   -2.2       1.        1. 
 Bq                   -2.2       1.2       1. 
 Bq                   -2.2       1.4       1. 
 Bq                   -2.2       1.6       1. 
 Bq                   -2.2       1.8       1. 
 Bq                   -2.2       2.        1. 
 Bq                   -2.2       2.2       1. 
 Bq                   -2.2       2.4       1. 
 Bq                   -2.2       2.6       1. 
 Bq                   -2.2       2.8       1. 
 Bq                   -2.2       3.        1. 
 Bq                   -2.2       3.2       1. 
 Bq                   -2.2       3.4       1. 
 Bq                   -2.2       3.6       1. 
 Bq                   -2.2       3.8       1. 
 Bq                   -2.2       4.        1. 
 Bq                   -2.2       4.2       1. 
 Bq                   -2.2       4.4       1. 
 Bq                   -2.2       4.6       1. 
 Bq                   -2.2       4.8       1. 
 Bq                   -2.2       5.        1. 
 Bq                   -2.2       5.2       1. 
 Bq                   -2.2       5.4       1. 
 Bq                   -2.2       5.6       1. 
 Bq                   -2.2       5.8       1. 
 Bq                   -2.2       6.        1. 
 Bq                   -2.       -6.        1. 
 Bq                   -2.       -5.8       1. 
 Bq                   -2.       -5.6       1. 
 Bq                   -2.       -5.4       1. 
 Bq                   -2.       -5.2       1. 
 Bq                   -2.       -5.        1. 
 Bq                   -2.       -4.8       1. 
 Bq                   -2.       -4.6       1. 
 Bq                   -2.       -4.4       1. 
 Bq                   -2.       -4.2       1. 
 Bq                   -2.       -4.        1. 
 Bq                   -2.       -3.8       1. 
 Bq                   -2.       -3.6       1. 
 Bq                   -2.       -3.4       1. 
 Bq                   -2.       -3.2       1. 
 Bq                   -2.       -3.        1. 
 Bq                   -2.       -2.8       1. 
 Bq                   -2.       -2.6       1. 
 Bq                   -2.       -2.4       1. 
 Bq                   -2.       -2.2       1. 
 Bq                   -2.       -2.        1. 
 Bq                   -2.       -1.8       1. 
 Bq                   -2.       -1.6       1. 
 Bq                   -2.       -1.4       1. 
 Bq                   -2.       -1.2       1. 
 Bq                   -2.       -1.        1. 
 Bq                   -2.       -0.8       1. 
 Bq                   -2.       -0.6       1. 
 Bq                   -2.       -0.4       1. 
 Bq                   -2.       -0.2       1. 
 Bq                   -2.        0.        1. 
 Bq                   -2.        0.2       1. 
 Bq                   -2.        0.4       1. 
 Bq                   -2.        0.6       1. 
 Bq                   -2.        0.8       1. 
 Bq                   -2.        1.        1. 
 Bq                   -2.        1.2       1. 
 Bq                   -2.        1.4       1. 
 Bq                   -2.        1.6       1. 
 Bq                   -2.        1.8       1. 
 Bq                   -2.        2.        1. 
 Bq                   -2.        2.2       1. 
 Bq                   -2.        2.4       1. 
 Bq                   -2.        2.6       1. 
 Bq                   -2.        2.8       1. 
 Bq                   -2.        3.        1. 
 Bq                   -2.        3.2       1. 
 Bq                   -2.        3.4       1. 
 Bq                   -2.        3.6       1. 
 Bq                   -2.        3.8       1. 
 Bq                   -2.        4.        1. 
 Bq                   -2.        4.2       1. 
[...]
 .6,1.\Bq,0,3.2,2.8,1.\Bq,0,3.2,3.,1.\Bq,0,3.2,3.2,1.\Bq,0,3.2,3.4,1.\B
 q,0,3.2,3.6,1.\Bq,0,3.2,3.8,1.\Bq,0,3.2,4.,1.\Bq,0,3.2,4.2,1.\Bq,0,3.2
 ,4.4,1.\Bq,0,3.2,4.6,1.\Bq,0,3.2,4.8,1.\Bq,0,3.2,5.,1.\Bq,0,3.2,5.2,1.
 \Bq,0,3.2,5.4,1.\Bq,0,3.2,5.6,1.\Bq,0,3.2,5.8,1.\Bq,0,3.2,6.,1.\Bq,0,3
 .4,-6.,1.\Bq,0,3.4,-5.8,1.\Bq,0,3.4,-5.6,1.\Bq,0,3.4,-5.4,1.\Bq,0,3.4,
 -5.2,1.\Bq,0,3.4,-5.,1.\Bq,0,3.4,-4.8,1.\Bq,0,3.4,-4.6,1.\Bq,0,3.4,-4.
 4,1.\Bq,0,3.4,-4.2,1.\Bq,0,3.4,-4.,1.\Bq,0,3.4,-3.8,1.\Bq,0,3.4,-3.6,1
 .\Bq,0,3.4,-3.4,1.\Bq,0,3.4,-3.2,1.\Bq,0,3.4,-3.,1.\Bq,0,3.4,-2.8,1.\B
 q,0,3.4,-2.6,1.\Bq,0,3.4,-2.4,1.\Bq,0,3.4,-2.2,1.\Bq,0,3.4,-2.,1.\Bq,0
 ,3.4,-1.8,1.\Bq,0,3.4,-1.6,1.\Bq,0,3.4,-1.4,1.\Bq,0,3.4,-1.2,1.\Bq,0,3
 .4,-1.,1.\Bq,0,3.4,-0.8,1.\Bq,0,3.4,-0.6,1.\Bq,0,3.4,-0.4,1.\Bq,0,3.4,
 -0.2,1.\Bq,0,3.4,0.,1.\Bq,0,3.4,0.2,1.\Bq,0,3.4,0.4,1.\Bq,0,3.4,0.6,1.
 \Bq,0,3.4,0.8,1.\Bq,0,3.4,1.,1.\Bq,0,3.4,1.2,1.\Bq,0,3.4,1.4,1.\Bq,0,3
 .4,1.6,1.\Bq,0,3.4,1.8,1.\Bq,0,3.4,2.,1.\Bq,0,3.4,2.2,1.\Bq,0,3.4,2.4,
 1.\Bq,0,3.4,2.6,1.\Bq,0,3.4,2.8,1.\Bq,0,3.4,3.,1.\Bq,0,3.4,3.2,1.\Bq,0
 ,3.4,3.4,1.\Bq,0,3.4,3.6,1.\Bq,0,3.4,3.8,1.\Bq,0,3.4,4.,1.\Bq,0,3.4,4.
 2,1.\Bq,0,3.4,4.4,1.\Bq,0,3.4,4.6,1.\Bq,0,3.4,4.8,1.\Bq,0,3.4,5.,1.\Bq
 ,0,3.4,5.2,1.\Bq,0,3.4,5.4,1.\Bq,0,3.4,5.6,1.\Bq,0,3.4,5.8,1.\Bq,0,3.4
 ,6.,1.\Bq,0,3.6,-6.,1.\Bq,0,3.6,-5.8,1.\Bq,0,3.6,-5.6,1.\Bq,0,3.6,-5.4
 ,1.\Bq,0,3.6,-5.2,1.\Bq,0,3.6,-5.,1.\Bq,0,3.6,-4.8,1.\Bq,0,3.6,-4.6,1.
 \Bq,0,3.6,-4.4,1.\Bq,0,3.6,-4.2,1.\Bq,0,3.6,-4.,1.\Bq,0,3.6,-3.8,1.\Bq
 ,0,3.6,-3.6,1.\Bq,0,3.6,-3.4,1.\Bq,0,3.6,-3.2,1.\Bq,0,3.6,-3.,1.\Bq,0,
 3.6,-2.8,1.\Bq,0,3.6,-2.6,1.\Bq,0,3.6,-2.4,1.\Bq,0,3.6,-2.2,1.\Bq,0,3.
 6,-2.,1.\Bq,0,3.6,-1.8,1.\Bq,0,3.6,-1.6,1.\Bq,0,3.6,-1.4,1.\Bq,0,3.6,-
 1.2,1.\Bq,0,3.6,-1.,1.\Bq,0,3.6,-0.8,1.\Bq,0,3.6,-0.6,1.\Bq,0,3.6,-0.4
 ,1.\Bq,0,3.6,-0.2,1.\Bq,0,3.6,0.,1.\Bq,0,3.6,0.2,1.\Bq,0,3.6,0.4,1.\Bq
 ,0,3.6,0.6,1.\Bq,0,3.6,0.8,1.\Bq,0,3.6,1.,1.\Bq,0,3.6,1.2,1.\Bq,0,3.6,
 1.4,1.\Bq,0,3.6,1.6,1.\Bq,0,3.6,1.8,1.\Bq,0,3.6,2.,1.\Bq,0,3.6,2.2,1.\
 Bq,0,3.6,2.4,1.\Bq,0,3.6,2.6,1.\Bq,0,3.6,2.8,1.\Bq,0,3.6,3.,1.\Bq,0,3.
 6,3.2,1.\Bq,0,3.6,3.4,1.\Bq,0,3.6,3.6,1.\Bq,0,3.6,3.8,1.\Bq,0,3.6,4.,1
 .\Bq,0,3.6,4.2,1.\Bq,0,3.6,4.4,1.\Bq,0,3.6,4.6,1.\Bq,0,3.6,4.8,1.\Bq,0
 ,3.6,5.,1.\Bq,0,3.6,5.2,1.\Bq,0,3.6,5.4,1.\Bq,0,3.6,5.6,1.\Bq,0,3.6,5.
 8,1.\Bq,0,3.6,6.,1.\Bq,0,3.8,-6.,1.\Bq,0,3.8,-5.8,1.\Bq,0,3.8,-5.6,1.\
 Bq,0,3.8,-5.4,1.\Bq,0,3.8,-5.2,1.\Bq,0,3.8,-5.,1.\Bq,0,3.8,-4.8,1.\Bq,
 0,3.8,-4.6,1.\Bq,0,3.8,-4.4,1.\Bq,0,3.8,-4.2,1.\Bq,0,3.8,-4.,1.\Bq,0,3
 .8,-3.8,1.\Bq,0,3.8,-3.6,1.\Bq,0,3.8,-3.4,1.\Bq,0,3.8,-3.2,1.\Bq,0,3.8
 ,-3.,1.\Bq,0,3.8,-2.8,1.\Bq,0,3.8,-2.6,1.\Bq,0,3.8,-2.4,1.\Bq,0,3.8,-2
 .2,1.\Bq,0,3.8,-2.,1.\Bq,0,3.8,-1.8,1.\Bq,0,3.8,-1.6,1.\Bq,0,3.8,-1.4,
 1.\Bq,0,3.8,-1.2,1.\Bq,0,3.8,-1.,1.\Bq,0,3.8,-0.8,1.\Bq,0,3.8,-0.6,1.\
 Bq,0,3.8,-0.4,1.\Bq,0,3.8,-0.2,1.\Bq,0,3.8,0.,1.\Bq,0,3.8,0.2,1.\Bq,0,
 3.8,0.4,1.\Bq,0,3.8,0.6,1.\Bq,0,3.8,0.8,1.\Bq,0,3.8,1.,1.\Bq,0,3.8,1.2
 ,1.\Bq,0,3.8,1.4,1.\Bq,0,3.8,1.6,1.\Bq,0,3.8,1.8,1.\Bq,0,3.8,2.,1.\Bq,
 0,3.8,2.2,1.\Bq,0,3.8,2.4,1.\Bq,0,3.8,2.6,1.\Bq,0,3.8,2.8,1.\Bq,0,3.8,
 3.,1.\Bq,0,3.8,3.2,1.\Bq,0,3.8,3.4,1.\Bq,0,3.8,3.6,1.\Bq,0,3.8,3.8,1.\
 Bq,0,3.8,4.,1.\Bq,0,3.8,4.2,1.\Bq,0,3.8,4.4,1.\Bq,0,3.8,4.6,1.\Bq,0,3.
 8,4.8,1.\Bq,0,3.8,5.,1.\Bq,0,3.8,5.2,1.\Bq,0,3.8,5.4,1.\Bq,0,3.8,5.6,1
 .\Bq,0,3.8,5.8,1.\Bq,0,3.8,6.,1.\Bq,0,4.,-6.,1.\Bq,0,4.,-5.8,1.\Bq,0,4
 .,-5.6,1.\Bq,0,4.,-5.4,1.\Bq,0,4.,-5.2,1.\Bq,0,4.,-5.,1.\Bq,0,4.,-4.8,
 1.\Bq,0,4.,-4.6,1.\Bq,0,4.,-4.4,1.\Bq,0,4.,-4.2,1.\Bq,0,4.,-4.,1.\Bq,0
 ,4.,-3.8,1.\Bq,0,4.,-3.6,1.\Bq,0,4.,-3.4,1.\Bq,0,4.,-3.2,1.\Bq,0,4.,-3
 .,1.\Bq,0,4.,-2.8,1.\Bq,0,4.,-2.6,1.\Bq,0,4.,-2.4,1.\Bq,0,4.,-2.2,1.\B
 q,0,4.,-2.,1.\Bq,0,4.,-1.8,1.\Bq,0,4.,-1.6,1.\Bq,0,4.,-1.4,1.\Bq,0,4.,
 -1.2,1.\Bq,0,4.,-1.,1.\Bq,0,4.,-0.8,1.\Bq,0,4.,-0.6,1.\Bq,0,4.,-0.4,1.
 \Bq,0,4.,-0.2,1.\Bq,0,4.,0.,1.\Bq,0,4.,0.2,1.\Bq,0,4.,0.4,1.\Bq,0,4.,0
 .6,1.\Bq,0,4.,0.8,1.\Bq,0,4.,1.,1.\Bq,0,4.,1.2,1.\Bq,0,4.,1.4,1.\Bq,0,
 4.,1.6,1.\Bq,0,4.,1.8,1.\Bq,0,4.,2.,1.\Bq,0,4.,2.2,1.\Bq,0,4.,2.4,1.\B
 q,0,4.,2.6,1.\Bq,0,4.,2.8,1.\Bq,0,4.,3.,1.\Bq,0,4.,3.2,1.\Bq,0,4.,3.4,
 1.\Bq,0,4.,3.6,1.\Bq,0,4.,3.8,1.\Bq,0,4.,4.,1.\Bq,0,4.,4.2,1.\Bq,0,4.,
 4.4,1.\Bq,0,4.,4.6,1.\Bq,0,4.,4.8,1.\Bq,0,4.,5.,1.\Bq,0,4.,5.2,1.\Bq,0
 ,4.,5.4,1.\Bq,0,4.,5.6,1.\Bq,0,4.,5.8,1.\Bq,0,4.,6.,1.\Bq,0,4.2,-6.,1.
 \Bq,0,4.2,-5.8,1.\Bq,0,4.2,-5.6,1.\Bq,0,4.2,-5.4,1.\Bq,0,4.2,-5.2,1.\B
 q,0,4.2,-5.,1.\Bq,0,4.2,-4.8,1.\Bq,0,4.2,-4.6,1.\Bq,0,4.2,-4.4,1.\Bq,0
 ,4.2,-4.2,1.\Bq,0,4.2,-4.,1.\Bq,0,4.2,-3.8,1.\Bq,0,4.2,-3.6,1.\Bq,0,4.
 2,-3.4,1.\Bq,0,4.2,-3.2,1.\Bq,0,4.2,-3.,1.\Bq,0,4.2,-2.8,1.\Bq,0,4.2,-
 2.6,1.\Bq,0,4.2,-2.4,1.\Bq,0,4.2,-2.2,1.\Bq,0,4.2,-2.,1.\Bq,0,4.2,-1.8
 ,1.\Bq,0,4.2,-1.6,1.\Bq,0,4.2,-1.4,1.\Bq,0,4.2,-1.2,1.\Bq,0,4.2,-1.,1.
 \Bq,0,4.2,-0.8,1.\Bq,0,4.2,-0.6,1.\Bq,0,4.2,-0.4,1.\Bq,0,4.2,-0.2,1.\B
 q,0,4.2,0.,1.\Bq,0,4.2,0.2,1.\Bq,0,4.2,0.4,1.\Bq,0,4.2,0.6,1.\Bq,0,4.2
 ,0.8,1.\Bq,0,4.2,1.,1.\Bq,0,4.2,1.2,1.\Bq,0,4.2,1.4,1.\Bq,0,4.2,1.6,1.
 \Bq,0,4.2,1.8,1.\Bq,0,4.2,2.,1.\Bq,0,4.2,2.2,1.\Bq,0,4.2,2.4,1.\Bq,0,4
 .2,2.6,1.\Bq,0,4.2,2.8,1.\Bq,0,4.2,3.,1.\Bq,0,4.2,3.2,1.\Bq,0,4.2,3.4,
 1.\Bq,0,4.2,3.6,1.\Bq,0,4.2,3.8,1.\Bq,0,4.2,4.,1.\Bq,0,4.2,4.2,1.\Bq,0
 ,4.2,4.4,1.\Bq,0,4.2,4.6,1.\Bq,0,4.2,4.8,1.\Bq,0,4.2,5.,1.\Bq,0,4.2,5.
 2,1.\Bq,0,4.2,5.4,1.\Bq,0,4.2,5.6,1.\Bq,0,4.2,5.8,1.\Bq,0,4.2,6.,1.\Bq
 ,0,4.4,-6.,1.\Bq,0,4.4,-5.8,1.\Bq,0,4.4,-5.6,1.\Bq,0,4.4,-5.4,1.\Bq,0,
 4.4,-5.2,1.\Bq,0,4.4,-5.,1.\Bq,0,4.4,-4.8,1.\Bq,0,4.4,-4.6,1.\Bq,0,4.4
 ,-4.4,1.\Bq,0,4.4,-4.2,1.\Bq,0,4.4,-4.,1.\Bq,0,4.4,-3.8,1.\Bq,0,4.4,-3
 .6,1.\Bq,0,4.4,-3.4,1.\Bq,0,4.4,-3.2,1.\Bq,0,4.4,-3.,1.\Bq,0,4.4,-2.8,
 1.\Bq,0,4.4,-2.6,1.\Bq,0,4.4,-2.4,1.\Bq,0,4.4,-2.2,1.\Bq,0,4.4,-2.,1.\
 Bq,0,4.4,-1.8,1.\Bq,0,4.4,-1.6,1.\Bq,0,4.4,-1.4,1.\Bq,0,4.4,-1.2,1.\Bq
 ,0,4.4,-1.,1.\Bq,0,4.4,-0.8,1.\Bq,0,4.4,-0.6,1.\Bq,0,4.4,-0.4,1.\Bq,0,
 4.4,-0.2,1.\Bq,0,4.4,0.,1.\Bq,0,4.4,0.2,1.\Bq,0,4.4,0.4,1.\Bq,0,4.4,0.
 6,1.\Bq,0,4.4,0.8,1.\Bq,0,4.4,1.,1.\Bq,0,4.4,1.2,1.\Bq,0,4.4,1.4,1.\Bq
 ,0,4.4,1.6,1.\Bq,0,4.4,1.8,1.\Bq,0,4.4,2.,1.\Bq,0,4.4,2.2,1.\Bq,0,4.4,
 2.4,1.\Bq,0,4.4,2.6,1.\Bq,0,4.4,2.8,1.\Bq,0,4.4,3.,1.\Bq,0,4.4,3.2,1.\
 Bq,0,4.4,3.4,1.\Bq,0,4.4,3.6,1.\Bq,0,4.4,3.8,1.\Bq,0,4.4,4.,1.\Bq,0,4.
 4,4.2,1.\Bq,0,4.4,4.4,1.\Bq,0,4.4,4.6,1.\Bq,0,4.4,4.8,1.\Bq,0,4.4,5.,1
 .\Bq,0,4.4,5.2,1.\Bq,0,4.4,5.4,1.\Bq,0,4.4,5.6,1.\Bq,0,4.4,5.8,1.\Bq,0
 ,4.4,6.,1.\Bq,0,4.6,-6.,1.\Bq,0,4.6,-5.8,1.\Bq,0,4.6,-5.6,1.\Bq,0,4.6,
 -5.4,1.\Bq,0,4.6,-5.2,1.\Bq,0,4.6,-5.,1.\Bq,0,4.6,-4.8,1.\Bq,0,4.6,-4.
 6,1.\Bq,0,4.6,-4.4,1.\Bq,0,4.6,-4.2,1.\Bq,0,4.6,-4.,1.\Bq,0,4.6,-3.8,1
 .\Bq,0,4.6,-3.6,1.\Bq,0,4.6,-3.4,1.\Bq,0,4.6,-3.2,1.\Bq,0,4.6,-3.,1.\B
 q,0,4.6,-2.8,1.\Bq,0,4.6,-2.6,1.\Bq,0,4.6,-2.4,1.\Bq,0,4.6,-2.2,1.\Bq,
 0,4.6,-2.,1.\Bq,0,4.6,-1.8,1.\Bq,0,4.6,-1.6,1.\Bq,0,4.6,-1.4,1.\Bq,0,4
 .6,-1.2,1.\Bq,0,4.6,-1.,1.\Bq,0,4.6,-0.8,1.\Bq,0,4.6,-0.6,1.\Bq,0,4.6,
 -0.4,1.\Bq,0,4.6,-0.2,1.\Bq,0,4.6,0.,1.\Bq,0,4.6,0.2,1.\Bq,0,4.6,0.4,1
 .\Bq,0,4.6,0.6,1.\Bq,0,4.6,0.8,1.\Bq,0,4.6,1.,1.\Bq,0,4.6,1.2,1.\Bq,0,
 4.6,1.4,1.\Bq,0,4.6,1.6,1.\Bq,0,4.6,1.8,1.\Bq,0,4.6,2.,1.\Bq,0,4.6,2.2
 ,1.\Bq,0,4.6,2.4,1.\Bq,0,4.6,2.6,1.\Bq,0,4.6,2.8,1.\Bq,0,4.6,3.,1.\Bq,
 0,4.6,3.2,1.\Bq,0,4.6,3.4,1.\Bq,0,4.6,3.6,1.\Bq,0,4.6,3.8,1.\Bq,0,4.6,
 4.,1.\Bq,0,4.6,4.2,1.\Bq,0,4.6,4.4,1.\Bq,0,4.6,4.6,1.\Bq,0,4.6,4.8,1.\
 Bq,0,4.6,5.,1.\Bq,0,4.6,5.2,1.\Bq,0,4.6,5.4,1.\Bq,0,4.6,5.6,1.\Bq,0,4.
 6,5.8,1.\Bq,0,4.6,6.,1.\Bq,0,4.8,-6.,1.\Bq,0,4.8,-5.8,1.\Bq,0,4.8,-5.6
 ,1.\Bq,0,4.8,-5.4,1.\Bq,0,4.8,-5.2,1.\Bq,0,4.8,-5.,1.\Bq,0,4.8,-4.8,1.
 \Bq,0,4.8,-4.6,1.\Bq,0,4.8,-4.4,1.\Bq,0,4.8,-4.2,1.\Bq,0,4.8,-4.,1.\Bq
 ,0,4.8,-3.8,1.\Bq,0,4.8,-3.6,1.\Bq,0,4.8,-3.4,1.\Bq,0,4.8,-3.2,1.\Bq,0
 ,4.8,-3.,1.\Bq,0,4.8,-2.8,1.\Bq,0,4.8,-2.6,1.\Bq,0,4.8,-2.4,1.\Bq,0,4.
 8,-2.2,1.\Bq,0,4.8,-2.,1.\Bq,0,4.8,-1.8,1.\Bq,0,4.8,-1.6,1.\Bq,0,4.8,-
 1.4,1.\Bq,0,4.8,-1.2,1.\Bq,0,4.8,-1.,1.\Bq,0,4.8,-0.8,1.\Bq,0,4.8,-0.6
 ,1.\Bq,0,4.8,-0.4,1.\Bq,0,4.8,-0.2,1.\Bq,0,4.8,0.,1.\Bq,0,4.8,0.2,1.\B
 q,0,4.8,0.4,1.\Bq,0,4.8,0.6,1.\Bq,0,4.8,0.8,1.\Bq,0,4.8,1.,1.\Bq,0,4.8
 ,1.2,1.\Bq,0,4.8,1.4,1.\Bq,0,4.8,1.6,1.\Bq,0,4.8,1.8,1.\Bq,0,4.8,2.,1.
 \Bq,0,4.8,2.2,1.\Bq,0,4.8,2.4,1.\Bq,0,4.8,2.6,1.\Bq,0,4.8,2.8,1.\Bq,0,
 4.8,3.,1.\Bq,0,4.8,3.2,1.\Bq,0,4.8,3.4,1.\Bq,0,4.8,3.6,1.\Bq,0,4.8,3.8
 ,1.\Bq,0,4.8,4.,1.\Bq,0,4.8,4.2,1.\Bq,0,4.8,4.4,1.\Bq,0,4.8,4.6,1.\Bq,
 0,4.8,4.8,1.\Bq,0,4.8,5.,1.\Bq,0,4.8,5.2,1.\Bq,0,4.8,5.4,1.\Bq,0,4.8,5
 .6,1.\Bq,0,4.8,5.8,1.\Bq,0,4.8,6.,1.\Bq,0,5.,-6.,1.\Bq,0,5.,-5.8,1.\Bq
 ,0,5.,-5.6,1.\Bq,0,5.,-5.4,1.\Bq,0,5.,-5.2,1.\Bq,0,5.,-5.,1.\Bq,0,5.,-
 4.8,1.\Bq,0,5.,-4.6,1.\Bq,0,5.,-4.4,1.\Bq,0,5.,-4.2,1.\Bq,0,5.,-4.,1.\
 Bq,0,5.,-3.8,1.\Bq,0,5.,-3.6,1.\Bq,0,5.,-3.4,1.\Bq,0,5.,-3.2,1.\Bq,0,5
 .,-3.,1.\Bq,0,5.,-2.8,1.\Bq,0,5.,-2.6,1.\Bq,0,5.,-2.4,1.\Bq,0,5.,-2.2,
 1.\Bq,0,5.,-2.,1.\Bq,0,5.,-1.8,1.\Bq,0,5.,-1.6,1.\Bq,0,5.,-1.4,1.\Bq,0
 ,5.,-1.2,1.\Bq,0,5.,-1.,1.\Bq,0,5.,-0.8,1.\Bq,0,5.,-0.6,1.\Bq,0,5.,-0.
 4,1.\Bq,0,5.,-0.2,1.\Bq,0,5.,0.,1.\Bq,0,5.,0.2,1.\Bq,0,5.,0.4,1.\Bq,0,
 5.,0.6,1.\Bq,0,5.,0.8,1.\Bq,0,5.,1.,1.\Bq,0,5.,1.2,1.\Bq,0,5.,1.4,1.\B
 q,0,5.,1.6,1.\Bq,0,5.,1.8,1.\Bq,0,5.,2.,1.\Bq,0,5.,2.2,1.\Bq,0,5.,2.4,
 1.\Bq,0,5.,2.6,1.\Bq,0,5.,2.8,1.\Bq,0,5.,3.,1.\Bq,0,5.,3.2,1.\Bq,0,5.,
 3.4,1.\Bq,0,5.,3.6,1.\Bq,0,5.,3.8,1.\Bq,0,5.,4.,1.\Bq,0,5.,4.2,1.\Bq,0
 ,5.,4.4,1.\Bq,0,5.,4.6,1.\Bq,0,5.,4.8,1.\Bq,0,5.,5.,1.\Bq,0,5.,5.2,1.\
 Bq,0,5.,5.4,1.\Bq,0,5.,5.6,1.\Bq,0,5.,5.8,1.\Bq,0,5.,6.,1.\Bq,0,5.2,-6
 .,1.\Bq,0,5.2,-5.8,1.\Bq,0,5.2,-5.6,1.\Bq,0,5.2,-5.4,1.\Bq,0,5.2,-5.2,
 1.\Bq,0,5.2,-5.,1.\Bq,0,5.2,-4.8,1.\Bq,0,5.2,-4.6,1.\Bq,0,5.2,-4.4,1.\
 Bq,0,5.2,-4.2,1.\Bq,0,5.2,-4.,1.\Bq,0,5.2,-3.8,1.\Bq,0,5.2,-3.6,1.\Bq,
 0,5.2,-3.4,1.\Bq,0,5.2,-3.2,1.\Bq,0,5.2,-3.,1.\Bq,0,5.2,-2.8,1.\Bq,0,5
 .2,-2.6,1.\Bq,0,5.2,-2.4,1.\Bq,0,5.2,-2.2,1.\Bq,0,5.2,-2.,1.\Bq,0,5.2,
 -1.8,1.\Bq,0,5.2,-1.6,1.\Bq,0,5.2,-1.4,1.\Bq,0,5.2,-1.2,1.\Bq,0,5.2,-1
 .,1.\Bq,0,5.2,-0.8,1.\Bq,0,5.2,-0.6,1.\Bq,0,5.2,-0.4,1.\Bq,0,5.2,-0.2,
 1.\Bq,0,5.2,0.,1.\Bq,0,5.2,0.2,1.\Bq,0,5.2,0.4,1.\Bq,0,5.2,0.6,1.\Bq,0
 ,5.2,0.8,1.\Bq,0,5.2,1.,1.\Bq,0,5.2,1.2,1.\Bq,0,5.2,1.4,1.\Bq,0,5.2,1.
 6,1.\Bq,0,5.2,1.8,1.\Bq,0,5.2,2.,1.\Bq,0,5.2,2.2,1.\Bq,0,5.2,2.4,1.\Bq
 ,0,5.2,2.6,1.\Bq,0,5.2,2.8,1.\Bq,0,5.2,3.,1.\Bq,0,5.2,3.2,1.\Bq,0,5.2,
 3.4,1.\Bq,0,5.2,3.6,1.\Bq,0,5.2,3.8,1.\Bq,0,5.2,4.,1.\Bq,0,5.2,4.2,1.\
 Bq,0,5.2,4.4,1.\Bq,0,5.2,4.6,1.\Bq,0,5.2,4.8,1.\Bq,0,5.2,5.,1.\Bq,0,5.
 2,5.2,1.\Bq,0,5.2,5.4,1.\Bq,0,5.2,5.6,1.\Bq,0,5.2,5.8,1.\Bq,0,5.2,6.,1
 .\Bq,0,5.4,-6.,1.\Bq,0,5.4,-5.8,1.\Bq,0,5.4,-5.6,1.\Bq,0,5.4,-5.4,1.\B
 q,0,5.4,-5.2,1.\Bq,0,5.4,-5.,1.\Bq,0,5.4,-4.8,1.\Bq,0,5.4,-4.6,1.\Bq,0
 ,5.4,-4.4,1.\Bq,0,5.4,-4.2,1.\Bq,0,5.4,-4.,1.\Bq,0,5.4,-3.8,1.\Bq,0,5.
 4,-3.6,1.\Bq,0,5.4,-3.4,1.\Bq,0,5.4,-3.2,1.\Bq,0,5.4,-3.,1.\Bq,0,5.4,-
 2.8,1.\Bq,0,5.4,-2.6,1.\Bq,0,5.4,-2.4,1.\Bq,0,5.4,-2.2,1.\Bq,0,5.4,-2.
 ,1.\Bq,0,5.4,-1.8,1.\Bq,0,5.4,-1.6,1.\Bq,0,5.4,-1.4,1.\Bq,0,5.4,-1.2,1
 .\Bq,0,5.4,-1.,1.\Bq,0,5.4,-0.8,1.\Bq,0,5.4,-0.6,1.\Bq,0,5.4,-0.4,1.\B
 q,0,5.4,-0.2,1.\Bq,0,5.4,0.,1.\Bq,0,5.4,0.2,1.\Bq,0,5.4,0.4,1.\Bq,0,5.
 4,0.6,1.\Bq,0,5.4,0.8,1.\Bq,0,5.4,1.,1.\Bq,0,5.4,1.2,1.\Bq,0,5.4,1.4,1
 .\Bq,0,5.4,1.6,1.\Bq,0,5.4,1.8,1.\Bq,0,5.4,2.,1.\Bq,0,5.4,2.2,1.\Bq,0,
 5.4,2.4,1.\Bq,0,5.4,2.6,1.\Bq,0,5.4,2.8,1.\Bq,0,5.4,3.,1.\Bq,0,5.4,3.2
 ,1.\Bq,0,5.4,3.4,1.\Bq,0,5.4,3.6,1.\Bq,0,5.4,3.8,1.\Bq,0,5.4,4.,1.\Bq,
 0,5.4,4.2,1.\Bq,0,5.4,4.4,1.\Bq,0,5.4,4.6,1.\Bq,0,5.4,4.8,1.\Bq,0,5.4,
 5.,1.\Bq,0,5.4,5.2,1.\Bq,0,5.4,5.4,1.\Bq,0,5.4,5.6,1.\Bq,0,5.4,5.8,1.\
 Bq,0,5.4,6.,1.\Bq,0,5.6,-6.,1.\Bq,0,5.6,-5.8,1.\Bq,0,5.6,-5.6,1.\Bq,0,
 5.6,-5.4,1.\Bq,0,5.6,-5.2,1.\Bq,0,5.6,-5.,1.\Bq,0,5.6,-4.8,1.\Bq,0,5.6
 ,-4.6,1.\Bq,0,5.6,-4.4,1.\Bq,0,5.6,-4.2,1.\Bq,0,5.6,-4.,1.\Bq,0,5.6,-3
 .8,1.\Bq,0,5.6,-3.6,1.\Bq,0,5.6,-3.4,1.\Bq,0,5.6,-3.2,1.\Bq,0,5.6,-3.,
 1.\Bq,0,5.6,-2.8,1.\Bq,0,5.6,-2.6,1.\Bq,0,5.6,-2.4,1.\Bq,0,5.6,-2.2,1.
 \Bq,0,5.6,-2.,1.\Bq,0,5.6,-1.8,1.\Bq,0,5.6,-1.6,1.\Bq,0,5.6,-1.4,1.\Bq
 ,0,5.6,-1.2,1.\Bq,0,5.6,-1.,1.\Bq,0,5.6,-0.8,1.\Bq,0,5.6,-0.6,1.\Bq,0,
 5.6,-0.4,1.\Bq,0,5.6,-0.2,1.\Bq,0,5.6,0.,1.\Bq,0,5.6,0.2,1.\Bq,0,5.6,0
 .4,1.\Bq,0,5.6,0.6,1.\Bq,0,5.6,0.8,1.\Bq,0,5.6,1.,1.\Bq,0,5.6,1.2,1.\B
 q,0,5.6,1.4,1.\Bq,0,5.6,1.6,1.\Bq,0,5.6,1.8,1.\Bq,0,5.6,2.,1.\Bq,0,5.6
 ,2.2,1.\Bq,0,5.6,2.4,1.\Bq,0,5.6,2.6,1.\Bq,0,5.6,2.8,1.\Bq,0,5.6,3.,1.
 \Bq,0,5.6,3.2,1.\Bq,0,5.6,3.4,1.\Bq,0,5.6,3.6,1.\Bq,0,5.6,3.8,1.\Bq,0,
 5.6,4.,1.\Bq,0,5.6,4.2,1.\Bq,0,5.6,4.4,1.\Bq,0,5.6,4.6,1.\Bq,0,5.6,4.8
 ,1.\Bq,0,5.6,5.,1.\Bq,0,5.6,5.2,1.\Bq,0,5.6,5.4,1.\Bq,0,5.6,5.6,1.\Bq,
 0,5.6,5.8,1.\Bq,0,5.6,6.,1.\Bq,0,5.8,-6.,1.\Bq,0,5.8,-5.8,1.\Bq,0,5.8,
 -5.6,1.\Bq,0,5.8,-5.4,1.\Bq,0,5.8,-5.2,1.\Bq,0,5.8,-5.,1.\Bq,0,5.8,-4.
 8,1.\Bq,0,5.8,-4.6,1.\Bq,0,5.8,-4.4,1.\Bq,0,5.8,-4.2,1.\Bq,0,5.8,-4.,1
 .\Bq,0,5.8,-3.8,1.\Bq,0,5.8,-3.6,1.\Bq,0,5.8,-3.4,1.\Bq,0,5.8,-3.2,1.\
 Bq,0,5.8,-3.,1.\Bq,0,5.8,-2.8,1.\Bq,0,5.8,-2.6,1.\Bq,0,5.8,-2.4,1.\Bq,
 0,5.8,-2.2,1.\Bq,0,5.8,-2.,1.\Bq,0,5.8,-1.8,1.\Bq,0,5.8,-1.6,1.\Bq,0,5
 .8,-1.4,1.\Bq,0,5.8,-1.2,1.\Bq,0,5.8,-1.,1.\Bq,0,5.8,-0.8,1.\Bq,0,5.8,
 -0.6,1.\Bq,0,5.8,-0.4,1.\Bq,0,5.8,-0.2,1.\Bq,0,5.8,0.,1.\Bq,0,5.8,0.2,
 1.\Bq,0,5.8,0.4,1.\Bq,0,5.8,0.6,1.\Bq,0,5.8,0.8,1.\Bq,0,5.8,1.,1.\Bq,0
 ,5.8,1.2,1.\Bq,0,5.8,1.4,1.\Bq,0,5.8,1.6,1.\Bq,0,5.8,1.8,1.\Bq,0,5.8,2
 .,1.\Bq,0,5.8,2.2,1.\Bq,0,5.8,2.4,1.\Bq,0,5.8,2.6,1.\Bq,0,5.8,2.8,1.\B
 q,0,5.8,3.,1.\Bq,0,5.8,3.2,1.\Bq,0,5.8,3.4,1.\Bq,0,5.8,3.6,1.\Bq,0,5.8
 ,3.8,1.\Bq,0,5.8,4.,1.\Bq,0,5.8,4.2,1.\Bq,0,5.8,4.4,1.\Bq,0,5.8,4.6,1.
 \Bq,0,5.8,4.8,1.\Bq,0,5.8,5.,1.\Bq,0,5.8,5.2,1.\Bq,0,5.8,5.4,1.\Bq,0,5
 .8,5.6,1.\Bq,0,5.8,5.8,1.\Bq,0,5.8,6.,1.\Bq,0,6.,-6.,1.\Bq,0,6.,-5.8,1
 .\Bq,0,6.,-5.6,1.\Bq,0,6.,-5.4,1.\Bq,0,6.,-5.2,1.\Bq,0,6.,-5.,1.\Bq,0,
 6.,-4.8,1.\Bq,0,6.,-4.6,1.\Bq,0,6.,-4.4,1.\Bq,0,6.,-4.2,1.\Bq,0,6.,-4.
 ,1.\Bq,0,6.,-3.8,1.\Bq,0,6.,-3.6,1.\Bq,0,6.,-3.4,1.\Bq,0,6.,-3.2,1.\Bq
 ,0,6.,-3.,1.\Bq,0,6.,-2.8,1.\Bq,0,6.,-2.6,1.\Bq,0,6.,-2.4,1.\Bq,0,6.,-
 2.2,1.\Bq,0,6.,-2.,1.\Bq,0,6.,-1.8,1.\Bq,0,6.,-1.6,1.\Bq,0,6.,-1.4,1.\
 Bq,0,6.,-1.2,1.\Bq,0,6.,-1.,1.\Bq,0,6.,-0.8,1.\Bq,0,6.,-0.6,1.\Bq,0,6.
 ,-0.4,1.\Bq,0,6.,-0.2,1.\Bq,0,6.,0.,1.\Bq,0,6.,0.2,1.\Bq,0,6.,0.4,1.\B
 q,0,6.,0.6,1.\Bq,0,6.,0.8,1.\Bq,0,6.,1.,1.\Bq,0,6.,1.2,1.\Bq,0,6.,1.4,
 1.\Bq,0,6.,1.6,1.\Bq,0,6.,1.8,1.\Bq,0,6.,2.,1.\Bq,0,6.,2.2,1.\Bq,0,6.,
 2.4,1.\Bq,0,6.,2.6,1.\Bq,0,6.,2.8,1.\Bq,0,6.,3.,1.\Bq,0,6.,3.2,1.\Bq,0
 ,6.,3.4,1.\Bq,0,6.,3.6,1.\Bq,0,6.,3.8,1.\Bq,0,6.,4.,1.\Bq,0,6.,4.2,1.\
 Bq,0,6.,4.4,1.\Bq,0,6.,4.6,1.\Bq,0,6.,4.8,1.\Bq,0,6.,5.,1.\Bq,0,6.,5.2
 ,1.\Bq,0,6.,5.4,1.\Bq,0,6.,5.6,1.\Bq,0,6.,5.8,1.\Bq,0,6.,6.,1.\Bq,0,6.
 2,-6.,1.\Bq,0,6.2,-5.8,1.\Bq,0,6.2,-5.6,1.\Bq,0,6.2,-5.4,1.\Bq,0,6.2,-
 5.2,1.\Bq,0,6.2,-5.,1.\Bq,0,6.2,-4.8,1.\Bq,0,6.2,-4.6,1.\Bq,0,6.2,-4.4
 ,1.\Bq,0,6.2,-4.2,1.\Bq,0,6.2,-4.,1.\Bq,0,6.2,-3.8,1.\Bq,0,6.2,-3.6,1.
 \Bq,0,6.2,-3.4,1.\Bq,0,6.2,-3.2,1.\Bq,0,6.2,-3.,1.\Bq,0,6.2,-2.8,1.\Bq
 ,0,6.2,-2.6,1.\Bq,0,6.2,-2.4,1.\Bq,0,6.2,-2.2,1.\Bq,0,6.2,-2.,1.\Bq,0,
 6.2,-1.8,1.\Bq,0,6.2,-1.6,1.\Bq,0,6.2,-1.4,1.\Bq,0,6.2,-1.2,1.\Bq,0,6.
 2,-1.,1.\Bq,0,6.2,-0.8,1.\Bq,0,6.2,-0.6,1.\Bq,0,6.2,-0.4,1.\Bq,0,6.2,-
 0.2,1.\Bq,0,6.2,0.,1.\Bq,0,6.2,0.2,1.\Bq,0,6.2,0.4,1.\Bq,0,6.2,0.6,1.\
 Bq,0,6.2,0.8,1.\Bq,0,6.2,1.,1.\Bq,0,6.2,1.2,1.\Bq,0,6.2,1.4,1.\Bq,0,6.
 2,1.6,1.\Bq,0,6.2,1.8,1.\Bq,0,6.2,2.,1.\Bq,0,6.2,2.2,1.\Bq,0,6.2,2.4,1
 .\Bq,0,6.2,2.6,1.\Bq,0,6.2,2.8,1.\Bq,0,6.2,3.,1.\Bq,0,6.2,3.2,1.\Bq,0,
 6.2,3.4,1.\Bq,0,6.2,3.6,1.\Bq,0,6.2,3.8,1.\Bq,0,6.2,4.,1.\Bq,0,6.2,4.2
 ,1.\Bq,0,6.2,4.4,1.\Bq,0,6.2,4.6,1.\Bq,0,6.2,4.8,1.\Bq,0,6.2,5.,1.\Bq,
 0,6.2,5.2,1.\Bq,0,6.2,5.4,1.\Bq,0,6.2,5.6,1.\Bq,0,6.2,5.8,1.\Bq,0,6.2,
 6.,1.\Bq,0,6.4,-6.,1.\Bq,0,6.4,-5.8,1.\Bq,0,6.4,-5.6,1.\Bq,0,6.4,-5.4,
 1.\Bq,0,6.4,-5.2,1.\Bq,0,6.4,-5.,1.\Bq,0,6.4,-4.8,1.\Bq,0,6.4,-4.6,1.\
 Bq,0,6.4,-4.4,1.\Bq,0,6.4,-4.2,1.\Bq,0,6.4,-4.,1.\Bq,0,6.4,-3.8,1.\Bq,
 0,6.4,-3.6,1.\Bq,0,6.4,-3.4,1.\Bq,0,6.4,-3.2,1.\Bq,0,6.4,-3.,1.\Bq,0,6
 .4,-2.8,1.\Bq,0,6.4,-2.6,1.\Bq,0,6.4,-2.4,1.\Bq,0,6.4,-2.2,1.\Bq,0,6.4
 ,-2.,1.\Bq,0,6.4,-1.8,1.\Bq,0,6.4,-1.6,1.\Bq,0,6.4,-1.4,1.\Bq,0,6.4,-1
 .2,1.\Bq,0,6.4,-1.,1.\Bq,0,6.4,-0.8,1.\Bq,0,6.4,-0.6,1.\Bq,0,6.4,-0.4,
 1.\Bq,0,6.4,-0.2,1.\Bq,0,6.4,0.,1.\Bq,0,6.4,0.2,1.\Bq,0,6.4,0.4,1.\Bq,
 0,6.4,0.6,1.\Bq,0,6.4,0.8,1.\Bq,0,6.4,1.,1.\Bq,0,6.4,1.2,1.\Bq,0,6.4,1
 .4,1.\Bq,0,6.4,1.6,1.\Bq,0,6.4,1.8,1.\Bq,0,6.4,2.,1.\Bq,0,6.4,2.2,1.\B
 q,0,6.4,2.4,1.\Bq,0,6.4,2.6,1.\Bq,0,6.4,2.8,1.\Bq,0,6.4,3.,1.\Bq,0,6.4
 ,3.2,1.\Bq,0,6.4,3.4,1.\Bq,0,6.4,3.6,1.\Bq,0,6.4,3.8,1.\Bq,0,6.4,4.,1.
 \Bq,0,6.4,4.2,1.\Bq,0,6.4,4.4,1.\Bq,0,6.4,4.6,1.\Bq,0,6.4,4.8,1.\Bq,0,
 6.4,5.,1.\Bq,0,6.4,5.2,1.\Bq,0,6.4,5.4,1.\Bq,0,6.4,5.6,1.\Bq,0,6.4,5.8
 ,1.\Bq,0,6.4,6.,1.\Bq,0,6.6,-6.,1.\Bq,0,6.6,-5.8,1.\Bq,0,6.6,-5.6,1.\B
 q,0,6.6,-5.4,1.\Bq,0,6.6,-5.2,1.\Bq,0,6.6,-5.,1.\Bq,0,6.6,-4.8,1.\Bq,0
 ,6.6,-4.6,1.\Bq,0,6.6,-4.4,1.\Bq,0,6.6,-4.2,1.\Bq,0,6.6,-4.,1.\Bq,0,6.
 6,-3.8,1.\Bq,0,6.6,-3.6,1.\Bq,0,6.6,-3.4,1.\Bq,0,6.6,-3.2,1.\Bq,0,6.6,
 -3.,1.\Bq,0,6.6,-2.8,1.\Bq,0,6.6,-2.6,1.\Bq,0,6.6,-2.4,1.\Bq,0,6.6,-2.
 2,1.\Bq,0,6.6,-2.,1.\Bq,0,6.6,-1.8,1.\Bq,0,6.6,-1.6,1.\Bq,0,6.6,-1.4,1
 .\Bq,0,6.6,-1.2,1.\Bq,0,6.6,-1.,1.\Bq,0,6.6,-0.8,1.\Bq,0,6.6,-0.6,1.\B
 q,0,6.6,-0.4,1.\Bq,0,6.6,-0.2,1.\Bq,0,6.6,0.,1.\Bq,0,6.6,0.2,1.\Bq,0,6
 .6,0.4,1.\Bq,0,6.6,0.6,1.\Bq,0,6.6,0.8,1.\Bq,0,6.6,1.,1.\Bq,0,6.6,1.2,
 1.\Bq,0,6.6,1.4,1.\Bq,0,6.6,1.6,1.\Bq,0,6.6,1.8,1.\Bq,0,6.6,2.,1.\Bq,0
 ,6.6,2.2,1.\Bq,0,6.6,2.4,1.\Bq,0,6.6,2.6,1.\Bq,0,6.6,2.8,1.\Bq,0,6.6,3
 .,1.\Bq,0,6.6,3.2,1.\Bq,0,6.6,3.4,1.\Bq,0,6.6,3.6,1.\Bq,0,6.6,3.8,1.\B
 q,0,6.6,4.,1.\Bq,0,6.6,4.2,1.\Bq,0,6.6,4.4,1.\Bq,0,6.6,4.6,1.\Bq,0,6.6
 ,4.8,1.\Bq,0,6.6,5.,1.\Bq,0,6.6,5.2,1.\Bq,0,6.6,5.4,1.\Bq,0,6.6,5.6,1.
 \Bq,0,6.6,5.8,1.\Bq,0,6.6,6.,1.\Bq,0,6.8,-6.,1.\Bq,0,6.8,-5.8,1.\Bq,0,
 6.8,-5.6,1.\Bq,0,6.8,-5.4,1.\Bq,0,6.8,-5.2,1.\Bq,0,6.8,-5.,1.\Bq,0,6.8
 ,-4.8,1.\Bq,0,6.8,-4.6,1.\Bq,0,6.8,-4.4,1.\Bq,0,6.8,-4.2,1.\Bq,0,6.8,-
 4.,1.\Bq,0,6.8,-3.8,1.\Bq,0,6.8,-3.6,1.\Bq,0,6.8,-3.4,1.\Bq,0,6.8,-3.2
 ,1.\Bq,0,6.8,-3.,1.\Bq,0,6.8,-2.8,1.\Bq,0,6.8,-2.6,1.\Bq,0,6.8,-2.4,1.
 \Bq,0,6.8,-2.2,1.\Bq,0,6.8,-2.,1.\Bq,0,6.8,-1.8,1.\Bq,0,6.8,-1.6,1.\Bq
 ,0,6.8,-1.4,1.\Bq,0,6.8,-1.2,1.\Bq,0,6.8,-1.,1.\Bq,0,6.8,-0.8,1.\Bq,0,
 6.8,-0.6,1.\Bq,0,6.8,-0.4,1.\Bq,0,6.8,-0.2,1.\Bq,0,6.8,0.,1.\Bq,0,6.8,
 0.2,1.\Bq,0,6.8,0.4,1.\Bq,0,6.8,0.6,1.\Bq,0,6.8,0.8,1.\Bq,0,6.8,1.,1.\
 Bq,0,6.8,1.2,1.\Bq,0,6.8,1.4,1.\Bq,0,6.8,1.6,1.\Bq,0,6.8,1.8,1.\Bq,0,6
 .8,2.,1.\Bq,0,6.8,2.2,1.\Bq,0,6.8,2.4,1.\Bq,0,6.8,2.6,1.\Bq,0,6.8,2.8,
 1.\Bq,0,6.8,3.,1.\Bq,0,6.8,3.2,1.\Bq,0,6.8,3.4,1.\Bq,0,6.8,3.6,1.\Bq,0
 ,6.8,3.8,1.\Bq,0,6.8,4.,1.\Bq,0,6.8,4.2,1.\Bq,0,6.8,4.4,1.\Bq,0,6.8,4.
 6,1.\Bq,0,6.8,4.8,1.\Bq,0,6.8,5.,1.\Bq,0,6.8,5.2,1.\Bq,0,6.8,5.4,1.\Bq
 ,0,6.8,5.6,1.\Bq,0,6.8,5.8,1.\Bq,0,6.8,6.,1.\Bq,0,7.,-6.,1.\Bq,0,7.,-5
 .8,1.\Bq,0,7.,-5.6,1.\Bq,0,7.,-5.4,1.\Bq,0,7.,-5.2,1.\Bq,0,7.,-5.,1.\B
 q,0,7.,-4.8,1.\Bq,0,7.,-4.6,1.\Bq,0,7.,-4.4,1.\Bq,0,7.,-4.2,1.\Bq,0,7.
 ,-4.,1.\Bq,0,7.,-3.8,1.\Bq,0,7.,-3.6,1.\Bq,0,7.,-3.4,1.\Bq,0,7.,-3.2,1
 .\Bq,0,7.,-3.,1.\Bq,0,7.,-2.8,1.\Bq,0,7.,-2.6,1.\Bq,0,7.,-2.4,1.\Bq,0,
 7.,-2.2,1.\Bq,0,7.,-2.,1.\Bq,0,7.,-1.8,1.\Bq,0,7.,-1.6,1.\Bq,0,7.,-1.4
 ,1.\Bq,0,7.,-1.2,1.\Bq,0,7.,-1.,1.\Bq,0,7.,-0.8,1.\Bq,0,7.,-0.6,1.\Bq,
 0,7.,-0.4,1.\Bq,0,7.,-0.2,1.\Bq,0,7.,0.,1.\Bq,0,7.,0.2,1.\Bq,0,7.,0.4,
 1.\Bq,0,7.,0.6,1.\Bq,0,7.,0.8,1.\Bq,0,7.,1.,1.\Bq,0,7.,1.2,1.\Bq,0,7.,
 1.4,1.\Bq,0,7.,1.6,1.\Bq,0,7.,1.8,1.\Bq,0,7.,2.,1.\Bq,0,7.,2.2,1.\Bq,0
 ,7.,2.4,1.\Bq,0,7.,2.6,1.\Bq,0,7.,2.8,1.\Bq,0,7.,3.,1.\Bq,0,7.,3.2,1.\
 Bq,0,7.,3.4,1.\Bq,0,7.,3.6,1.\Bq,0,7.,3.8,1.\Bq,0,7.,4.,1.\Bq,0,7.,4.2
 ,1.\Bq,0,7.,4.4,1.\Bq,0,7.,4.6,1.\Bq,0,7.,4.8,1.\Bq,0,7.,5.,1.\Bq,0,7.
 ,5.2,1.\Bq,0,7.,5.4,1.\Bq,0,7.,5.6,1.\Bq,0,7.,5.8,1.\Bq,0,7.,6.,1.\\Ve
 rsion=ES64L-G16RevB.01\HF=-425.1709188\RMSD=9.965e-09\Dipole=-0.242318
 3,-0.2157056,0.0000119\Quadrupole=3.4051467,2.7081076,-6.1132543,-0.51
 45589,-0.0003459,-0.0000993\PG=C01 [X(C11H10)]\\@


 AN AIRPLANE IS A COLLECTION OF SPARE PARTS
 FLYING IN CLOSE FORMATION.
 Job cpu time:       0 days  0 hours  6 minutes 18.7 seconds.
 Elapsed time:       0 days  0 hours  0 minutes 59.4 seconds.
 File lengths (MBytes):  RWF=     51 Int=      0 D2E=      0 Chk=     16 Scr=      1
 Normal termination of Gaussian 16 at Fri May 28 13:40:24 2021.
