 Entering Gaussian System, Link 0=g16
 Initial command:
 /home/wangzhe/g16/l1.exe "/home/wangzhe/g16/Scratch/Gau-11329.inp" -scrdir="/home/wangzhe/g16/Scratch/"
 Default is to use a total of  16 processors:
                               16 via shared-memory
                                1 via Linda
 Entering Link 1 = /home/wangzhe/g16/l1.exe PID=     11332.
  
 Copyright (c) 1988-2017, Gaussian, Inc.  All Rights Reserved.
  
 This is part of the Gaussian(R) 16 program.  It is based on
 the Gaussian(R) 09 system (copyright 2009, Gaussian, Inc.),
 the Gaussian(R) 03 system (copyright 2003, Gaussian, Inc.),
 the Gaussian(R) 98 system (copyright 1998, Gaussian, Inc.),
 the Gaussian(R) 94 system (copyright 1995, Gaussian, Inc.),
 the Gaussian 92(TM) system (copyright 1992, Gaussian, Inc.),
 the Gaussian 90(TM) system (copyright 1990, Gaussian, Inc.),
 the Gaussian 88(TM) system (copyright 1988, Gaussian, Inc.),
 the Gaussian 86(TM) system (copyright 1986, Carnegie Mellon
 University), and the Gaussian 82(TM) system (copyright 1983,
 Carnegie Mellon University). Gaussian is a federally registered
 trademark of Gaussian, Inc.
  
 This software contains proprietary and confidential information,
 including trade secrets, belonging to Gaussian, Inc.
  
 This software is provided under written license and may be
 used, copied, transmitted, or stored only in accord with that
 written license.
  
 The following legend is applicable only to US Government
 contracts under FAR:
  
                    RESTRICTED RIGHTS LEGEND
  
 Use, reproduction and disclosure by the US Government is
 subject to restrictions as set forth in subparagraphs (a)
 and (c) of the Commercial Computer Software - Restricted
 Rights clause in FAR 52.227-19.
  
 Gaussian, Inc.
 340 Quinnipiac St., Bldg. 40, Wallingford CT 06492
  
  
 ---------------------------------------------------------------
 Warning -- This program may not be used in any manner that
 competes with the business of Gaussian, Inc. or will provide
 assistance to any competitor of Gaussian, Inc.  The licensee
 of this program is prohibited from giving any competitor of
 Gaussian, Inc. access to this program.  By using this program,
 the user acknowledges that Gaussian, Inc. is engaged in the
 business of creating and licensing software in the field of
 computational chemistry and represents and warrants to the
 licensee that it is not a competitor of Gaussian, Inc. and that
 it will not use this program in any manner prohibited above.
 ---------------------------------------------------------------
  

 Cite this work as:
 Gaussian 16, Revision B.01,
 M. J. Frisch, G. W. Trucks, H. B. Schlegel, G. E. Scuseria, 
 M. A. Robb, J. R. Cheeseman, G. Scalmani, V. Barone, 
 G. A. Petersson, H. Nakatsuji, X. Li, M. Caricato, A. V. Marenich, 
 J. Bloino, B. G. Janesko, R. Gomperts, B. Mennucci, H. P. Hratchian, 
 J. V. Ortiz, A. F. Izmaylov, J. L. Sonnenberg, D. Williams-Young, 
 F. Ding, F. Lipparini, F. Egidi, J. Goings, B. Peng, A. Petrone, 
 T. Henderson, D. Ranasinghe, V. G. Zakrzewski, J. Gao, N. Rega, 
 G. Zheng, W. Liang, M. Hada, M. Ehara, K. Toyota, R. Fukuda, 
 J. Hasegawa, M. Ishida, T. Nakajima, Y. Honda, O. Kitao, H. Nakai, 
 T. Vreven, K. Throssell, J. A. Montgomery, Jr., J. E. Peralta, 
 F. Ogliaro, M. J. Bearpark, J. J. Heyd, E. N. Brothers, K. N. Kudin, 
 V. N. Staroverov, T. A. Keith, R. Kobayashi, J. Normand, 
 K. Raghavachari, A. P. Rendell, J. C. Burant, S. S. Iyengar, 
 J. Tomasi, M. Cossi, J. M. Millam, M. Klene, C. Adamo, R. Cammi, 
 J. W. Ochterski, R. L. Martin, K. Morokuma, O. Farkas, 
 J. B. Foresman, and D. J. Fox, Gaussian, Inc., Wallingford CT, 2016.
 
 ******************************************
 Gaussian 16:  ES64L-G16RevB.01 20-Dec-2017
                 2-Sep-2021 
 ******************************************
 %nprocshared=8
 Will use up to    8 processors via shared memory.
 %mem=10GB
 %chk=benzene_nics_nbo.chk
 -----------------------------------------------
 # b3lyp/6-31+g(d) nmr pop=nbo6read iop(10/46=1)
 -----------------------------------------------
 1/38=1,163=2,172=1/1;
 2/12=2,17=6,18=5,40=1/2;
 3/5=1,6=6,7=11,11=2,25=1,30=1,74=-5/1,2,3,8;
 4//1;
 5/5=2,38=5/2;
 8/6=1,10=90,11=11/1;
 10/13=100,45=16,46=1/2;
 6/7=2,8=2,9=2,10=2,28=1,40=2,64=1,113=1,114=1,124=2103,125=11000/1,12;
 99/9=1/99;
 ------------------------------
 NICSinput//Created_by_py.Aroma
 ------------------------------
 Symbolic Z-matrix:
 Charge =  0 Multiplicity = 1
 C                    -1.33924  -0.39585   0.00001 
 C                    -0.32669  -1.35773   0.00007 
 C                     1.01242  -0.96188  -0.00006 
 C                     1.3392    0.39597   0.00001 
 C                     0.3268    1.3577    0.00006 
 C                    -1.0125    0.9618   -0.00006 
 H                    -2.38133  -0.70401  -0.00007 
 H                    -0.58109  -2.41425   0.00008 
 H                     1.80038  -1.71023  -0.00015 
 H                     2.38137   0.70386   0.00001 
 H                     0.58095   2.41427   0.00002 
 H                    -1.80028   1.71035  -0.00006 
 Bq                   -0.00001  -0.00001   0. 
 Bq                    0.00001  -0.00006   1. 
 Bq                   -0.00002   0.00004  -1. 
 
                          Input orientation:                          
 ---------------------------------------------------------------------
 Center     Atomic      Atomic             Coordinates (Angstroms)
 Number     Number       Type             X           Y           Z
 ---------------------------------------------------------------------
      1          6           0       -1.339236   -0.395853    0.000005
      2          6           0       -0.326685   -1.357730    0.000069
      3          6           0        1.012421   -0.961878   -0.000055
      4          6           0        1.339202    0.395965    0.000008
      5          6           0        0.326798    1.357700    0.000062
      6          6           0       -1.012501    0.961798   -0.000058
      7          1           0       -2.381330   -0.704010   -0.000066
      8          1           0       -0.581086   -2.414245    0.000079
      9          1           0        1.800375   -1.710234   -0.000154
     10          1           0        2.381367    0.703858    0.000007
     11          1           0        0.580952    2.414267    0.000018
     12          1           0       -1.800276    1.710353   -0.000063
     13          0           0       -0.000006   -0.000010    0.000004
     14          0           0        0.000009   -0.000057    1.000004
     15          0           0       -0.000020    0.000036   -0.999996
 ---------------------------------------------------------------------
                    Distance matrix (angstroms):
                    1          2          3          4          5
     1  C    0.000000
     2  C    1.396591   0.000000
     3  C    2.418817   1.396390   0.000000
     4  C    2.793028   2.418807   1.396611   0.000000
     5  C    2.418805   2.792955   2.418785   1.396387   0.000000
     6  C    1.396414   2.418792   2.792998   2.418817   1.396589
     7  H    1.086702   2.156134   3.403534   3.879730   3.403617
     8  H    2.156084   1.086712   2.156069   3.403643   3.879668
     9  H    3.403638   2.156071   1.086696   2.156097   3.403476
    10  H    3.879723   3.403482   2.156082   1.086695   2.156099
    11  H    3.403512   3.879661   3.403604   2.156035   1.086705
    12  H    2.156076   3.403616   3.879701   3.403518   2.156109
    13  Bq   1.396506   1.396468   1.396495   1.396522   1.396487
    14  Bq   1.717623   1.717520   1.717613   1.717633   1.717609
    15  Bq   1.717623   1.717664   1.717614   1.717639   1.717608
                    6          7          8          9         10
     6  C    0.000000
     7  H    2.156063   0.000000
     8  H    3.403496   2.483099   0.000000
     9  H    3.879694   4.301063   2.483342   0.000000
    10  H    3.403656   4.966425   4.301011   2.483021   0.000000
    11  H    2.156098   4.301019   4.966373   4.300988   2.483343
    12  H    1.086703   2.483299   4.301015   4.966397   4.301066
    13  Bq   1.396503   2.483208   2.483180   2.483191   2.483217
    14  Bq   1.717692   2.677025   2.676906   2.677002   2.677005
    15  Bq   1.717551   2.676972   2.677039   2.676963   2.677009
                   11         12         13         14         15
    11  H    0.000000
    12  H    2.483091   0.000000
    13  Bq   2.483193   2.483206   0.000000
    14  Bq   2.677018   2.677062   1.000000   0.000000
    15  Bq   2.676951   2.676933   1.000000   2.000000   0.000000
 Symmetry turned off:
 Cannot cope with ghost atoms or with translation vectors.
 Stoichiometry    C6H6
 Framework group  C1[X(C6H6)]
 NumDoF:  NAt=    12 NAtoms=    15
 Deg. of freedom     0
 Full point group                 C1      NOp   1
 Rotational constants (GHZ):           5.6880242           5.6878624           2.8439717
 Standard basis: 6-31+G(d) (6D, 7F)
 Warning:  center  13 has no basis functions!
 Warning:  center  14 has no basis functions!
 Warning:  center  15 has no basis functions!
   126 basis functions,   216 primitive gaussians,   126 cartesian basis functions
    21 alpha electrons       21 beta electrons
       nuclear repulsion energy       203.2101596819 Hartrees.
 NAtoms=   15 NActive=   15 NUniq=   15 SFac= 1.00D+00 NAtFMM=   60 NAOKFM=F Big=F
 Integral buffers will be    131072 words long.
 Raffenetti 2 integral format.
 Two-electron integral symmetry is turned off.
 One-electron integrals computed using PRISM.
 NBasis=   126 RedAO= T EigKep=  6.44D-06  NBF=   126
 NBsUse=   126 1.00D-06 EigRej= -1.00D+00 NBFU=   126
 ExpMin= 4.38D-02 ExpMax= 3.05D+03 ExpMxC= 4.57D+02 IAcc=3 IRadAn=         5 AccDes= 0.00D+00
 Harris functional with IExCor=  402 and IRadAn=       5 diagonalized for initial guess.
 HarFok:  IExCor=  402 AccDes= 0.00D+00 IRadAn=         5 IDoV= 1 UseB2=F ITyADJ=14
 ICtDFT=  3500011 ScaDFX=  1.000000  1.000000  1.000000  1.000000
 FoFCou: FMM=F IPFlag=           0 FMFlag=      100000 FMFlg1=           0
         NFxFlg=           0 DoJE=T BraDBF=F KetDBF=T FulRan=T
         wScrn=  0.000000 ICntrl=       500 IOpCl=  0 I1Cent=   200000004 NGrid=           0
         NMat0=    1 NMatS0=      1 NMatT0=    0 NMatD0=    1 NMtDS0=    0 NMtDT0=    0
 Symmetry not used in FoFCou.
 Requested convergence on RMS density matrix=1.00D-08 within 128 cycles.
 Requested convergence on MAX density matrix=1.00D-06.
 Requested convergence on             energy=1.00D-06.
 No special actions if energy rises.
 SCF Done:  E(RB3LYP) =  -232.258899521     A.U. after   10 cycles
            NFock= 10  Conv=0.95D-09     -V/T= 2.0101
 DoSCS=F DFT=T ScalE2(SS,OS)=  1.000000  1.000000
 Range of M.O.s used for correlation:     1   126
 NBasis=   126 NAE=    21 NBE=    21 NFC=     0 NFV=     0
 NROrb=    126 NOA=    21 NOB=    21 NVA=   105 NVB=   105

 **** Warning!!: The largest alpha MO coefficient is  0.10183505D+03

          Differentiating once with respect to magnetic field using GIAOs.
          Electric field/nuclear overlap derivatives assumed to be zero.
 FoFCou: FMM=F IPFlag=           0 FMFlag=      100000 FMFlg1=           0
         NFxFlg=           0 DoJE=F BraDBF=F KetDBF=T FulRan=T
         wScrn=  0.000000 ICntrl=      6100 IOpCl=  0 I1Cent=           7 NGrid=          15
         NMat0=    1 NMatS0=      1 NMatT0=    0 NMatD0=    1 NMtDS0=    0 NMtDT0=    0
 Symmetry not used in FoFCou.
 FoFJK:  IHMeth= 1 ICntrl=    6127 DoSepK=F KAlg= 0 I1Cent=           0 FoldK=F
 IRaf=         1 NMat=       1 IRICut=       1 DoRegI=T DoRafI=F ISym2E= 0 IDoP0=0 IntGTp=1.
          There are     3 degrees of freedom in the 1st order CPHF.  IDoFFX=0 NUNeed=     3.
      3 vectors produced by pass  0 Test12= 7.35D-14 3.33D-08 XBig12= 6.30D+00 8.43D-01.
 AX will form     3 AO Fock derivatives at one time.
      3 vectors produced by pass  1 Test12= 7.35D-14 3.33D-08 XBig12= 5.26D-03 3.65D-02.
      3 vectors produced by pass  2 Test12= 7.35D-14 3.33D-08 XBig12= 4.05D-06 6.51D-04.
      3 vectors produced by pass  3 Test12= 7.35D-14 3.33D-08 XBig12= 4.78D-09 2.77D-05.
      3 vectors produced by pass  4 Test12= 7.35D-14 3.33D-08 XBig12= 1.04D-11 1.09D-06.
 InvSVY:  IOpt=1 It=  1 EMax= 4.44D-16
 Solved reduced A of dimension    15 with     3 vectors.
 Calculating GIAO nuclear magnetic shielding tensors.
 SCF GIAO Magnetic shielding tensor (ppm):
      1  C    Isotropic =    67.9707   Anisotropy =   166.5399
   XX=   -24.9518   YX=   -24.2367   ZX=    -0.0101
   XY=   -24.1557   YY=    49.8666   ZY=     0.0037
   XZ=    -0.0052   YZ=    -0.0040   ZZ=   178.9973
   Eigenvalues:   -32.0949    57.0097   178.9973
      2  C    Isotropic =    67.9835   Anisotropy =   166.5556
   XX=    52.1404   YX=   -20.2085   ZX=     0.0053
   XY=   -20.2772   YY=   -27.2105   ZY=     0.0087
   XZ=    -0.0027   YZ=    -0.0075   ZZ=   179.0206
   Eigenvalues:   -32.0762    57.0061   179.0206
      3  C    Isotropic =    67.9569   Anisotropy =   166.5532
   XX=    10.1529   YX=    44.5372   ZX=     0.0170
   XY=    44.5350   YY=    14.7254   ZY=    -0.0118
   XZ=     0.0084   YZ=    -0.0095   ZZ=   178.9924
   Eigenvalues:   -32.1556    57.0339   178.9924
      4  C    Isotropic =    67.9716   Anisotropy =   166.5403
   XX=   -24.9449   YX=   -24.2389   ZX=     0.0019
   XY=   -24.1753   YY=    49.8613   ZY=    -0.0059
   XZ=     0.0113   YZ=     0.0050   ZZ=   178.9984
   Eigenvalues:   -32.0949    57.0113   178.9984
      5  C    Isotropic =    67.9844   Anisotropy =   166.5563
   XX=    52.1342   YX=   -20.2290   ZX=    -0.0038
   XY=   -20.2808   YY=   -27.2029   ZY=    -0.0018
   XZ=     0.0013   YZ=     0.0000   ZZ=   179.0220
   Eigenvalues:   -32.0748    57.0061   179.0220
      6  C    Isotropic =    67.9569   Anisotropy =   166.5520
   XX=    10.1403   YX=    44.5450   ZX=    -0.0093
   XY=    44.5252   YY=    14.7388   ZY=     0.0046
   XZ=    -0.0115   YZ=     0.0121   ZZ=   178.9916
   Eigenvalues:   -32.1549    57.0340   178.9916
      7  H    Isotropic =    24.7904   Anisotropy =     4.7360
   XX=    24.9609   YX=    -0.8847   ZX=    -0.0003
   XY=    -0.8885   YY=    27.6846   ZY=    -0.0000
   XZ=     0.0003   YZ=    -0.0001   ZZ=    21.7257
   Eigenvalues:    21.7257    24.6978    27.9477
      8  H    Isotropic =    24.7900   Anisotropy =     4.7365
   XX=    27.7681   YX=    -0.7443   ZX=     0.0000
   XY=    -0.7412   YY=    24.8769   ZY=     0.0000
   XZ=    -0.0002   YZ=    -0.0004   ZZ=    21.7251
   Eigenvalues:    21.7251    24.6973    27.9477
      9  H    Isotropic =    24.7911   Anisotropy =     4.7341
   XX=    26.2401   YX=     1.6211   ZX=     0.0003
   XY=     1.6219   YY=    26.4070   ZY=    -0.0002
   XZ=    -0.0005   YZ=     0.0004   ZZ=    21.7262
   Eigenvalues:    21.7262    24.6999    27.9472
     10  H    Isotropic =    24.7905   Anisotropy =     4.7362
   XX=    24.9603   YX=    -0.8837   ZX=    -0.0000
   XY=    -0.8876   YY=    27.6854   ZY=    -0.0001
   XZ=     0.0001   YZ=     0.0002   ZZ=    21.7258
   Eigenvalues:    21.7258    24.6978    27.9479
     11  H    Isotropic =    24.7902   Anisotropy =     4.7366
   XX=    27.7687   YX=    -0.7434   ZX=     0.0000
   XY=    -0.7403   YY=    24.8766   ZY=     0.0003
   XZ=     0.0002   YZ=     0.0001   ZZ=    21.7252
   Eigenvalues:    21.7252    24.6974    27.9479
     12  H    Isotropic =    24.7910   Anisotropy =     4.7340
   XX=    26.2411   YX=     1.6211   ZX=     0.0001
   XY=     1.6218   YY=    26.4058   ZY=    -0.0001
   XZ=     0.0002   YZ=    -0.0001   ZZ=    21.7260
   Eigenvalues:    21.7260    24.6999    27.9470
     13  Bq   Isotropic =     8.0159   Anisotropy =     7.7509
   XX=     5.4315   YX=     0.0021   ZX=    -0.0001
   XY=     0.0024   YY=     5.4331   ZY=     0.0001
   XZ=    -0.0000   YZ=     0.0000   ZZ=    13.1832
   Eigenvalues:     5.4299     5.4347    13.1832
     14  Bq   Isotropic =    10.1475   Anisotropy =    27.9080
   XX=     0.8439   YX=     0.0038   ZX=    -0.0000
   XY=     0.0040   YY=     0.8459   ZY=     0.0003
   XZ=    -0.0001   YZ=     0.0001   ZZ=    28.7528
   Eigenvalues:     0.8409     0.8489    28.7528
     15  Bq   Isotropic =    10.1481   Anisotropy =    27.9095
   XX=     0.8452   YX=     0.0018   ZX=    -0.0001
   XY=     0.0020   YY=     0.8447   ZY=     0.0002
   XZ=    -0.0000   YZ=     0.0001   ZZ=    28.7545
   Eigenvalues:     0.8430     0.8468    28.7545
 End of Minotr F.D. properties file   721 does not exist.
 End of Minotr F.D. properties file   722 does not exist.
 End of Minotr F.D. properties file   788 does not exist.

 **********************************************************************

            Population analysis using the SCF Density.

 **********************************************************************

 Alpha  occ. eigenvalues --  -10.19808 -10.19781 -10.19781 -10.19725 -10.19725
 Alpha  occ. eigenvalues --  -10.19698  -0.85768  -0.75031  -0.75031  -0.60717
 Alpha  occ. eigenvalues --   -0.60717  -0.52796  -0.46736  -0.44901  -0.42680
 Alpha  occ. eigenvalues --   -0.42680  -0.36989  -0.34965  -0.34964  -0.25729
 Alpha  occ. eigenvalues --   -0.25729
 Alpha virt. eigenvalues --   -0.01398  -0.01397   0.00890   0.02623   0.02623
 Alpha virt. eigenvalues --    0.04608   0.04608   0.06662   0.07820   0.07934
 Alpha virt. eigenvalues --    0.09224   0.09225   0.09984   0.12745   0.14283
 Alpha virt. eigenvalues --    0.14283   0.14498   0.14498   0.15530   0.15530
 Alpha virt. eigenvalues --    0.19609   0.19709   0.19709   0.20564   0.21175
 Alpha virt. eigenvalues --    0.21176   0.23545   0.24385   0.24386   0.26647
 Alpha virt. eigenvalues --    0.27995   0.27996   0.32539   0.34877   0.34879
 Alpha virt. eigenvalues --    0.34981   0.34982   0.56749   0.57481   0.60379
 Alpha virt. eigenvalues --    0.62098   0.65902   0.71714   0.71714   0.72157
 Alpha virt. eigenvalues --    0.72158   0.74683   0.74683   0.76932   0.76932
 Alpha virt. eigenvalues --    0.80367   0.82803   0.89622   0.93124   0.93124
 Alpha virt. eigenvalues --    0.96366   0.96366   0.97676   1.03194   1.07425
 Alpha virt. eigenvalues --    1.07426   1.13740   1.13743   1.17016   1.17016
 Alpha virt. eigenvalues --    1.25092   1.31013   1.39067   1.43576   1.43577
 Alpha virt. eigenvalues --    1.47878   1.47880   1.50530   1.50530   1.74944
 Alpha virt. eigenvalues --    1.81771   1.88467   1.90647   1.98848   1.98849
 Alpha virt. eigenvalues --    2.10697   2.10697   2.15156   2.15157   2.16461
 Alpha virt. eigenvalues --    2.16464   2.30291   2.30295   2.32254   2.57264
 Alpha virt. eigenvalues --    2.57265   2.64652   2.70419   2.70423   2.73311
 Alpha virt. eigenvalues --    2.73314   2.82679   3.02029   3.40119   4.22421
 Alpha virt. eigenvalues --    4.23840   4.23840   4.37621   4.37621   4.67818
          Condensed to atoms (all electrons):
               1          2          3          4          5          6
     1  C    4.966471   0.549595  -0.080738  -0.017328  -0.080770   0.549781
     2  C    0.549595   4.966511   0.549787  -0.080771  -0.017337  -0.080772
     3  C   -0.080738   0.549787   4.966507   0.549579  -0.080780  -0.017326
     4  C   -0.017328  -0.080771   0.549579   4.966467   0.549793  -0.080735
     5  C   -0.080770  -0.017337  -0.080780   0.549793   4.966521   0.549589
     6  C    0.549781  -0.080772  -0.017326  -0.080735   0.549589   4.966492
     7  H    0.275135   0.001783   0.009272  -0.006530   0.009278   0.001809
     8  H    0.001786   0.275116   0.001818   0.009274  -0.006529   0.009276
     9  H    0.009273   0.001812   0.275134   0.001781   0.009277  -0.006530
    10  H   -0.006530   0.009279   0.001782   0.275136   0.001807   0.009272
    11  H    0.009274  -0.006530   0.009277   0.001809   0.275120   0.001790
    12  H    0.001809   0.009276  -0.006530   0.009273   0.001788   0.275132
    13  Bq   0.000000   0.000000   0.000000   0.000000   0.000000   0.000000
    14  Bq   0.000000   0.000000   0.000000   0.000000   0.000000   0.000000
    15  Bq   0.000000   0.000000   0.000000   0.000000   0.000000   0.000000
               7          8          9         10         11         12
     1  C    0.275135   0.001786   0.009273  -0.006530   0.009274   0.001809
     2  C    0.001783   0.275116   0.001812   0.009279  -0.006530   0.009276
     3  C    0.009272   0.001818   0.275134   0.001782   0.009277  -0.006530
     4  C   -0.006530   0.009274   0.001781   0.275136   0.001809   0.009273
     5  C    0.009278  -0.006529   0.009277   0.001807   0.275120   0.001788
     6  C    0.001809   0.009276  -0.006530   0.009272   0.001790   0.275132
     7  H    0.542322  -0.005266  -0.000159   0.000015  -0.000159  -0.005265
     8  H   -0.005266   0.542332  -0.005265  -0.000159   0.000015  -0.000159
     9  H   -0.000159  -0.005265   0.542324  -0.005267  -0.000159   0.000015
    10  H    0.000015  -0.000159  -0.005267   0.542323  -0.005264  -0.000159
    11  H   -0.000159   0.000015  -0.000159  -0.005264   0.542333  -0.005266
    12  H   -0.005265  -0.000159   0.000015  -0.000159  -0.005266   0.542322
    13  Bq   0.000000   0.000000   0.000000   0.000000   0.000000   0.000000
    14  Bq   0.000000   0.000000   0.000000   0.000000   0.000000   0.000000
    15  Bq   0.000000   0.000000   0.000000   0.000000   0.000000   0.000000
              13         14         15
     1  C    0.000000   0.000000   0.000000
     2  C    0.000000   0.000000   0.000000
     3  C    0.000000   0.000000   0.000000
     4  C    0.000000   0.000000   0.000000
     5  C    0.000000   0.000000   0.000000
     6  C    0.000000   0.000000   0.000000
     7  H    0.000000   0.000000   0.000000
     8  H    0.000000   0.000000   0.000000
     9  H    0.000000   0.000000   0.000000
    10  H    0.000000   0.000000   0.000000
    11  H    0.000000   0.000000   0.000000
    12  H    0.000000   0.000000   0.000000
    13  Bq   0.000000   0.000000   0.000000
    14  Bq   0.000000   0.000000   0.000000
    15  Bq   0.000000   0.000000   0.000000
 Mulliken charges:
               1
     1  C   -0.177758
     2  C   -0.177750
     3  C   -0.177784
     4  C   -0.177749
     5  C   -0.177759
     6  C   -0.177778
     7  H    0.177765
     8  H    0.177760
     9  H    0.177763
    10  H    0.177765
    11  H    0.177759
    12  H    0.177764
    13  Bq   0.000000
    14  Bq   0.000000
    15  Bq   0.000000
 Sum of Mulliken charges =  -0.00000
 Mulliken charges with hydrogens summed into heavy atoms:
               1
     1  C    0.000008
     2  C    0.000011
     3  C   -0.000020
     4  C    0.000016
     5  C    0.000000
     6  C   -0.000014
    13  Bq   0.000000
    14  Bq   0.000000
    15  Bq   0.000000
 Electronic spatial extent (au):  <R**2>=            460.7587
 Charge=             -0.0000 electrons
 Dipole moment (field-independent basis, Debye):
    X=              0.0000    Y=             -0.0000    Z=             -0.0001  Tot=              0.0001
 Quadrupole moment (field-independent basis, Debye-Ang):
   XX=            -32.2062   YY=            -32.2072   ZZ=            -40.3952
   XY=             -0.0001   XZ=             -0.0000   YZ=              0.0001
 Traceless Quadrupole moment (field-independent basis, Debye-Ang):
   XX=              2.7300   YY=              2.7290   ZZ=             -5.4590
   XY=             -0.0001   XZ=             -0.0000   YZ=              0.0001
 Octapole moment (field-independent basis, Debye-Ang**2):
  XXX=              0.0025  YYY=              0.0020  ZZZ=             -0.0003  XYY=             -0.0023
  XXY=             -0.0020  XXZ=             -0.0010  XZZ=              0.0001  YZZ=              0.0000
  YYZ=             -0.0003  XYZ=              0.0005
 Hexadecapole moment (field-independent basis, Debye-Ang**3):
 XXXX=           -280.2251 YYYY=           -280.2270 ZZZZ=            -52.1288 XXXY=             -0.0007
 XXXZ=              0.0004 YYYX=             -0.0005 YYYZ=             -0.0003 ZZZX=             -0.0001
 ZZZY=              0.0001 XXYY=            -93.4091 XXZZ=            -66.2106 YYZZ=            -66.2093
 XXYZ=              0.0009 YYXZ=             -0.0007 ZZXY=              0.0000
 N-N= 2.032101596819D+02 E-N=-9.433694702048D+02  KE= 2.299270416550D+02
 Running external command "gaunbo6 R"
         input file       "/home/wangzhe/g16/Scratch/Gau-11332.EIn"
         output file      "/home/wangzhe/g16/Scratch/Gau-11332.EOu"
         message file     "/home/wangzhe/g16/Scratch/Gau-11332.EMs"
         fchk file        "/home/wangzhe/g16/Scratch/Gau-11332.EFC"
         mat. el file     "/home/wangzhe/g16/Scratch/Gau-11332.EUF"

 Writing WrtUnf unformatted file "/home/wangzhe/g16/Scratch/Gau-11332.EUF"
 Gaussian matrix elements                                         Version   2 NLab=11 Len12L=8 Len4L=8
 Write SHELL TO ATOM MAP                   from file     0 offset           0 length                  42 to matrix element file.
 Write SHELL TYPES                         from file     0 offset           0 length                  42 to matrix element file.
 Write NUMBER OF PRIMITIVES PER SHELL      from file     0 offset           0 length                  42 to matrix element file.
 Write PRIMITIVE EXPONENTS                 from file     0 offset           0 length                  96 to matrix element file.
 Write CONTRACTION COEFFICIENTS            from file     0 offset           0 length                  96 to matrix element file.
 Write P(S=P) CONTRACTION COEFFICIENTS     from file     0 offset           0 length                  96 to matrix element file.
 Write COORDINATES OF EACH SHELL           from file     0 offset           0 length                 126 to matrix element file.
 Write BONDS PER ATOM                      from file     0 offset           0 length                  15 to matrix element file.
 Write BONDED ATOMS                        from file     0 offset           0 length                  30 to matrix element file.
 Write BOND TYPES                          from file     0 offset           0 length                  30 to matrix element file.
 Write GAUSSIAN SCALARS                    from file   501 offset           0 to matrix element file.
 Write INTEGER ISO                         from file     0 offset           0 length                  15 to matrix element file.
 Write INTEGER SPIN                        from file     0 offset           0 length                  15 to matrix element file.
 Write REAL ZEFFECTIVE                     from file     0 offset           0 length                  15 to matrix element file.
 Write REAL GFACTOR                        from file     0 offset           0 length                  15 to matrix element file.
 Write REAL ZNUCLEAR                       from file     0 offset           0 length                  15 to matrix element file.
 Write MULLIKEN CHARGES                    from file     0 offset           0 length                  15 to matrix element file.
 Write NUCLEAR GRADIENT                    from file 10584 offset           0 length                  45 to matrix element file.
 Array NUCLEAR FORCE CONSTANTS              on  file 10585 does not exist.
 Write ELECTRIC DIPOLE MOMENT              from file     0 offset           0 length                   3 to matrix element file.
 Write NON-ADIABATIC COUPLING              from file 10810 offset           0 length                  45 to matrix element file.
 Write OVERLAP                             from file 10514 offset           0 length                8001 to matrix element file.
 Write CORE HAMILTONIAN ALPHA              from file 10515 offset           0 length                8001 to matrix element file.
 Write CORE HAMILTONIAN BETA               from file 10515 offset        8001 length                8001 to matrix element file.
 Write KINETIC ENERGY                      from file 10516 offset           0 length                8001 to matrix element file.
 Write ORTHOGONAL BASIS                    from file 10685 offset           0 length               15876 to matrix element file.
 Write DIPOLE INTEGRALS                    from file 10518 offset           0 length               24003 to matrix element file.
 Write DIP VEL INTEGRALS                   from file 10572 offset           0 length               24003 to matrix element file.
 Write R X DEL INTEGRALS                   from file 10572 offset       24003 length               24003 to matrix element file.
 Write ALPHA ORBITAL ENERGIES              from file     0 offset           0 length                 126 to matrix element file.
 Write ALPHA MO COEFFICIENTS               from file 10524 offset           0 length               15876 to matrix element file.
 Write ALPHA DENSITY MATRIX                from file     0 offset           0 length                8001 to matrix element file.
 Write ALPHA SCF DENSITY MATRIX            from file 10528 offset           0 length                8001 to matrix element file.
 Write ALPHA FOCK MATRIX                   from file 10536 offset           0 length                8001 to matrix element file.
 Write ALPHA DENSITY DERIVATIVES                                        from file 10592 offset           0 length               24003 to matrix element file.
 Write ALPHA MO DERIVATIVES                from file     0 offset           0 length                7938 to matrix element file.
 Write ALPHA SCF DENSITY                   from file     0 offset           0 length                8001 to matrix element file.
 Write TRANS MO COEFFICIENTS               from file 10548 offset           0 length               15876 to matrix element file.
 Compute GIAO d2H/dBdm
 ShPair: Thresh= 1.00D-12 NBox=     0 BxSize= 0.00D+00 RnKept= 9.39D+00
         NSMCal=                  903 NSMKep=                 900
 Compute GIAO d2H/dBdm, IAt=     1 NDo=     5
 Compute GIAO d2H/dBdm, IAt=     6 NDo=     5
 Compute GIAO d2H/dBdm, IAt=    11 NDo=     5
 Write GIAO D2H/DBDM                       from file 19999 offset           0 length             1080135 to matrix element file.
 Compute GIAO L/R3
 Compute GIAO L/R3, IAt=     1 NDo=     5
 Compute GIAO L/R3, IAt=     6 NDo=     5
 Compute GIAO L/R3, IAt=    11 NDo=     5
 Write GIAO L/R3                           from file 19999 offset           0 length              360045 to matrix element file.
 No 2e integrals to process.
 Perform NBO analysis...executing G16NBO...

 *********************************** NBO 7.0 ***********************************
             N A T U R A L   A T O M I C   O R B I T A L   A N D
          N A T U R A L   B O N D   O R B I T A L   A N A L Y S I S
 ****************************** Zhe Wang (I102139) *****************************
  (c) Copyright 1996-2021 Board of Regents of the University of Wisconsin System
      on behalf of the Theoretical Chemistry Institute.  All rights reserved.

          Cite this program [NBO 7.0.10 (8-Feb-2021)] as:

          NBO 7.0.  E. D. Glendening, J. K. Badenhoop, A. E. Reed,
          J. E. Carpenter, J. A. Bohmann, C. M. Morales, P. Karafiloglou,
          C. R. Landis, and F. Weinhold, Theoretical Chemistry Institute,
          University of Wisconsin, Madison, WI (2018)

       /NPA    / : Natural Population Analysis
       /NBO    / : Natural Bond Orbital Analysis
       /NBOSUM / : Print summary of the NBO analysis
       /NLMO   / : Form natural localized molecular orbitals
       /NRT    / : Natural Resonance Theory Analysis
       /NCS    / : Natural Chemical Shielding Analysis
                     including chemical shielding anisotropy
                     in the molecular Cartesian axes
                     NCS Analysis with canonical MOs
       /E2PERT / : Print perturbative analysis of NBO Fock matrix
       /DIPOLE / : Print NBO/NLMO dipole moment analysis
       /CMO    / : Print NBO analysis of canonical MOs
       /BNDIDX / : Print bond indices based on the NAO density matrix

 Filename set to /home/wangzhe/g16/Scratch/Gau-11332

 Job title: NICSinput//Created_by_py.Aroma


 NATURAL POPULATIONS:  Natural atomic orbital occupancies

  NAO Atom No lang   Type(AO)    Occupancy      Energy
 -------------------------------------------------------
   1    C  1  s      Cor( 1s)     2.00000     -10.19750
   2    C  1  s      Val( 2s)     0.97402      -0.10653
   3    C  1  s      Ryd( 4s)     0.00065       1.16295
   4    C  1  s      Ryd( 3s)     0.00011       0.68441
   5    C  1  s      Ryd( 5s)     0.00004       3.86119
   6    C  1  px     Val( 2p)     1.18885      -0.04313
   7    C  1  px     Ryd( 4p)     0.00479       1.06761
   8    C  1  px     Ryd( 3p)     0.00031       0.28458
   9    C  1  py     Val( 2p)     1.06732      -0.00495
  10    C  1  py     Ryd( 4p)     0.00432       0.65393
  11    C  1  py     Ryd( 3p)     0.00016       0.36690
  12    C  1  pz     Val( 2p)     0.99712      -0.10743
  13    C  1  pz     Ryd( 4p)     0.00147       0.53466
  14    C  1  pz     Ryd( 3p)     0.00059       0.31006
  15    C  1  dxy    Ryd( 3d)     0.00091       2.37460
  16    C  1  dxz    Ryd( 3d)     0.00034       1.80467
  17    C  1  dyz    Ryd( 3d)     0.00047       1.93069
  18    C  1  dx2y2  Ryd( 3d)     0.00101       2.36015
  19    C  1  dz2    Ryd( 3d)     0.00076       2.23377

  20    C  2  s      Cor( 1s)     2.00000     -10.19750
  21    C  2  s      Val( 2s)     0.97401      -0.10652
  22    C  2  s      Ryd( 4s)     0.00065       1.16292
  23    C  2  s      Ryd( 3s)     0.00011       0.68423
  24    C  2  s      Ryd( 5s)     0.00004       3.86147
  25    C  2  px     Val( 2p)     1.06362      -0.00377
  26    C  2  px     Ryd( 4p)     0.00430       0.64133
  27    C  2  px     Ryd( 3p)     0.00016       0.36943
  28    C  2  py     Val( 2p)     1.19257      -0.04430
  29    C  2  py     Ryd( 4p)     0.00480       1.08023
  30    C  2  py     Ryd( 3p)     0.00032       0.28207
  31    C  2  pz     Val( 2p)     0.99713      -0.10743
  32    C  2  pz     Ryd( 4p)     0.00147       0.53466
  33    C  2  pz     Ryd( 3p)     0.00059       0.31006
  34    C  2  dxy    Ryd( 3d)     0.00089       2.37775
  35    C  2  dxz    Ryd( 3d)     0.00048       1.93455
  36    C  2  dyz    Ryd( 3d)     0.00033       1.80081
  37    C  2  dx2y2  Ryd( 3d)     0.00104       2.35703
  38    C  2  dz2    Ryd( 3d)     0.00076       2.23376

  39    C  3  s      Cor( 1s)     2.00000     -10.19750
  40    C  3  s      Val( 2s)     0.97401      -0.10653
  41    C  3  s      Ryd( 4s)     0.00065       1.16295
  42    C  3  s      Ryd( 3s)     0.00011       0.68436
  43    C  3  s      Ryd( 5s)     0.00004       3.86125
  44    C  3  px     Val( 2p)     1.13184      -0.02519
  45    C  3  px     Ryd( 4p)     0.00457       0.87347
  46    C  3  px     Ryd( 3p)     0.00024       0.32324
  47    C  3  py     Val( 2p)     1.12433      -0.02288
  48    C  3  py     Ryd( 4p)     0.00454       0.84807
  49    C  3  py     Ryd( 3p)     0.00023       0.32825
  50    C  3  pz     Val( 2p)     0.99712      -0.10743
  51    C  3  pz     Ryd( 4p)     0.00147       0.53465
  52    C  3  pz     Ryd( 3p)     0.00059       0.31006
  53    C  3  dxy    Ryd( 3d)     0.00109       2.34981
  54    C  3  dxz    Ryd( 3d)     0.00040       1.86388
  55    C  3  dyz    Ryd( 3d)     0.00041       1.87148
  56    C  3  dx2y2  Ryd( 3d)     0.00083       2.38496
  57    C  3  dz2    Ryd( 3d)     0.00076       2.23376

  58    C  4  s      Cor( 1s)     2.00000     -10.19750
  59    C  4  s      Val( 2s)     0.97401      -0.10653
  60    C  4  s      Ryd( 4s)     0.00065       1.16297
  61    C  4  s      Ryd( 3s)     0.00011       0.68439
  62    C  4  s      Ryd( 5s)     0.00004       3.86119
  63    C  4  px     Val( 2p)     1.18890      -0.04312
  64    C  4  px     Ryd( 4p)     0.00479       1.06769
  65    C  4  px     Ryd( 3p)     0.00031       0.28458
  66    C  4  py     Val( 2p)     1.06727      -0.00495
  67    C  4  py     Ryd( 4p)     0.00432       0.65386
  68    C  4  py     Ryd( 3p)     0.00016       0.36689
  69    C  4  pz     Val( 2p)     0.99712      -0.10743
  70    C  4  pz     Ryd( 4p)     0.00147       0.53466
  71    C  4  pz     Ryd( 3p)     0.00059       0.31006
  72    C  4  dxy    Ryd( 3d)     0.00091       2.37459
  73    C  4  dxz    Ryd( 3d)     0.00034       1.80471
  74    C  4  dyz    Ryd( 3d)     0.00047       1.93065
  75    C  4  dx2y2  Ryd( 3d)     0.00101       2.36018
  76    C  4  dz2    Ryd( 3d)     0.00076       2.23377

  77    C  5  s      Cor( 1s)     2.00000     -10.19750
  78    C  5  s      Val( 2s)     0.97401      -0.10652
  79    C  5  s      Ryd( 4s)     0.00065       1.16293
  80    C  5  s      Ryd( 3s)     0.00011       0.68421
  81    C  5  s      Ryd( 5s)     0.00004       3.86149
  82    C  5  px     Val( 2p)     1.06358      -0.00378
  83    C  5  px     Ryd( 4p)     0.00430       0.64127
  84    C  5  px     Ryd( 3p)     0.00016       0.36943
  85    C  5  py     Val( 2p)     1.19261      -0.04429
  86    C  5  py     Ryd( 4p)     0.00480       1.08029
  87    C  5  py     Ryd( 3p)     0.00032       0.28207
  88    C  5  pz     Val( 2p)     0.99713      -0.10743
  89    C  5  pz     Ryd( 4p)     0.00147       0.53466
  90    C  5  pz     Ryd( 3p)     0.00059       0.31006
  91    C  5  dxy    Ryd( 3d)     0.00089       2.37774
  92    C  5  dxz    Ryd( 3d)     0.00048       1.93451
  93    C  5  dyz    Ryd( 3d)     0.00033       1.80085
  94    C  5  dx2y2  Ryd( 3d)     0.00104       2.35704
  95    C  5  dz2    Ryd( 3d)     0.00076       2.23377

  96    C  6  s      Cor( 1s)     2.00000     -10.19750
  97    C  6  s      Val( 2s)     0.97402      -0.10653
  98    C  6  s      Ryd( 4s)     0.00065       1.16294
  99    C  6  s      Ryd( 3s)     0.00011       0.68435
 100    C  6  s      Ryd( 5s)     0.00004       3.86128
 101    C  6  px     Val( 2p)     1.13176      -0.02521
 102    C  6  px     Ryd( 4p)     0.00457       0.87334
 103    C  6  px     Ryd( 3p)     0.00024       0.32323
 104    C  6  py     Val( 2p)     1.12441      -0.02287
 105    C  6  py     Ryd( 4p)     0.00454       0.84820
 106    C  6  py     Ryd( 3p)     0.00023       0.32826
 107    C  6  pz     Val( 2p)     0.99713      -0.10743
 108    C  6  pz     Ryd( 4p)     0.00147       0.53466
 109    C  6  pz     Ryd( 3p)     0.00059       0.31006
 110    C  6  dxy    Ryd( 3d)     0.00109       2.34980
 111    C  6  dxz    Ryd( 3d)     0.00040       1.86380
 112    C  6  dyz    Ryd( 3d)     0.00041       1.87156
 113    C  6  dx2y2  Ryd( 3d)     0.00083       2.38496
 114    C  6  dz2    Ryd( 3d)     0.00076       2.23376

 115    H  7  s      Val( 1s)     0.75594       0.10469
 116    H  7  s      Ryd( 2s)     0.00081       0.63684

 117    H  8  s      Val( 1s)     0.75594       0.10468
 118    H  8  s      Ryd( 2s)     0.00081       0.63686

 119    H  9  s      Val( 1s)     0.75594       0.10469
 120    H  9  s      Ryd( 2s)     0.00081       0.63684

 121    H 10  s      Val( 1s)     0.75594       0.10469
 122    H 10  s      Ryd( 2s)     0.00081       0.63684

 123    H 11  s      Val( 1s)     0.75594       0.10468
 124    H 11  s      Ryd( 2s)     0.00081       0.63686

 125    H 12  s      Val( 1s)     0.75594       0.10469
 126    H 12  s      Ryd( 2s)     0.00081       0.63685


 Summary of Natural Population Analysis:

                                     Natural Population
             Natural    ---------------------------------------------
  Atom No    Charge        Core      Valence    Rydberg      Total
 --------------------------------------------------------------------
    C  1   -0.24324      2.00000     4.22731    0.01594     6.24324
    C  2   -0.24325      2.00000     4.22732    0.01594     6.24325
    C  3   -0.24325      2.00000     4.22731    0.01594     6.24325
    C  4   -0.24324      2.00000     4.22731    0.01594     6.24324
    C  5   -0.24325      2.00000     4.22732    0.01594     6.24325
    C  6   -0.24325      2.00000     4.22731    0.01594     6.24325
    H  7    0.24325      0.00000     0.75594    0.00081     0.75675
    H  8    0.24325      0.00000     0.75594    0.00081     0.75675
    H  9    0.24325      0.00000     0.75594    0.00081     0.75675
    H 10    0.24325      0.00000     0.75594    0.00081     0.75675
    H 11    0.24325      0.00000     0.75594    0.00081     0.75675
    H 12    0.24325      0.00000     0.75594    0.00081     0.75675
   gh 13    0.00000      0.00000     0.00000    0.00000     0.00000
   gh 14    0.00000      0.00000     0.00000    0.00000     0.00000
   gh 15    0.00000      0.00000     0.00000    0.00000     0.00000
 ====================================================================
 * Total *  0.00000     11.99998    29.89952    0.10050    42.00000

                                 Natural Population
 ---------------------------------------------------------
   Core                      11.99998 ( 99.9998% of   12)
   Valence                   29.89952 ( 99.6651% of   30)
   Natural Minimal Basis     41.89950 ( 99.7607% of   42)
   Natural Rydberg Basis      0.10050 (  0.2393% of   42)
 ---------------------------------------------------------

    Atom No         Natural Electron Configuration
 ----------------------------------------------------------------------------
      C  1      [core]2s( 0.97)2p( 3.25)4p( 0.01)
      C  2      [core]2s( 0.97)2p( 3.25)4p( 0.01)
      C  3      [core]2s( 0.97)2p( 3.25)4p( 0.01)
      C  4      [core]2s( 0.97)2p( 3.25)4p( 0.01)
      C  5      [core]2s( 0.97)2p( 3.25)4p( 0.01)
      C  6      [core]2s( 0.97)2p( 3.25)4p( 0.01)
      H  7            1s( 0.76)
      H  8            1s( 0.76)
      H  9            1s( 0.76)
      H 10            1s( 0.76)
      H 11            1s( 0.76)
      H 12            1s( 0.76)


 Wiberg bond index matrix in the NAO basis:

     Atom    1       2       3       4       5       6       7       8       9
     ---- ------  ------  ------  ------  ------  ------  ------  ------  ------
   1.  C  0.0000  1.4364  0.0109  0.1145  0.0109  1.4369  0.9133  0.0031  0.0088
   2.  C  1.4364  0.0000  1.4369  0.0109  0.1145  0.0109  0.0031  0.9133  0.0031
   3.  C  0.0109  1.4369  0.0000  1.4363  0.0109  0.1145  0.0088  0.0031  0.9133
   4.  C  0.1145  0.0109  1.4363  0.0000  1.4369  0.0109  0.0003  0.0088  0.0031
   5.  C  0.0109  0.1145  0.0109  1.4369  0.0000  1.4364  0.0088  0.0003  0.0088
   6.  C  1.4369  0.0109  0.1145  0.0109  1.4364  0.0000  0.0031  0.0088  0.0003
   7.  H  0.9133  0.0031  0.0088  0.0003  0.0088  0.0031  0.0000  0.0018  0.0003
   8.  H  0.0031  0.9133  0.0031  0.0088  0.0003  0.0088  0.0018  0.0000  0.0018
   9.  H  0.0088  0.0031  0.9133  0.0031  0.0088  0.0003  0.0003  0.0018  0.0000
  10.  H  0.0003  0.0088  0.0031  0.9133  0.0031  0.0088  0.0005  0.0003  0.0018
  11.  H  0.0088  0.0003  0.0088  0.0031  0.9133  0.0031  0.0003  0.0005  0.0003
  12.  H  0.0031  0.0088  0.0003  0.0088  0.0031  0.9133  0.0018  0.0003  0.0005
  13. gh  0.0000  0.0000  0.0000  0.0000  0.0000  0.0000  0.0000  0.0000  0.0000
  14. gh  0.0000  0.0000  0.0000  0.0000  0.0000  0.0000  0.0000  0.0000  0.0000
  15. gh  0.0000  0.0000  0.0000  0.0000  0.0000  0.0000  0.0000  0.0000  0.0000

     Atom   10      11      12      13      14      15
     ---- ------  ------  ------  ------  ------  ------
   1.  C  0.0003  0.0088  0.0031  0.0000  0.0000  0.0000
   2.  C  0.0088  0.0003  0.0088  0.0000  0.0000  0.0000
   3.  C  0.0031  0.0088  0.0003  0.0000  0.0000  0.0000
   4.  C  0.9133  0.0031  0.0088  0.0000  0.0000  0.0000
   5.  C  0.0031  0.9133  0.0031  0.0000  0.0000  0.0000
   6.  C  0.0088  0.0031  0.9133  0.0000  0.0000  0.0000
   7.  H  0.0005  0.0003  0.0018  0.0000  0.0000  0.0000
   8.  H  0.0003  0.0005  0.0003  0.0000  0.0000  0.0000
   9.  H  0.0018  0.0003  0.0005  0.0000  0.0000  0.0000
  10.  H  0.0000  0.0018  0.0003  0.0000  0.0000  0.0000
  11.  H  0.0018  0.0000  0.0018  0.0000  0.0000  0.0000
  12.  H  0.0003  0.0018  0.0000  0.0000  0.0000  0.0000
  13. gh  0.0000  0.0000  0.0000  0.0000  0.0000  0.0000
  14. gh  0.0000  0.0000  0.0000  0.0000  0.0000  0.0000
  15. gh  0.0000  0.0000  0.0000  0.0000  0.0000  0.0000


 Wiberg bond index, Totals by atom:

     Atom    1
     ---- ------
   1.  C  3.9469
   2.  C  3.9469
   3.  C  3.9469
   4.  C  3.9469
   5.  C  3.9469
   6.  C  3.9469
   7.  H  0.9421
   8.  H  0.9421
   9.  H  0.9421
  10.  H  0.9421
  11.  H  0.9421
  12.  H  0.9421
  13. gh  0.0000
  14. gh  0.0000
  15. gh  0.0000


 NBI: Natural Binding Index (NCU strength parameters)

     Atom    1       2       3       4       5       6       7       8       9
     ---- ------  ------  ------  ------  ------  ------  ------  ------  ------
   1.  C  0.0000  1.1985  0.1042  0.3383  0.1042  1.1987  0.9556  0.0558  0.0939
   2.  C  1.1985  0.0000  1.1987  0.1042  0.3383  0.1042  0.0558  0.9556  0.0558
   3.  C  0.1042  1.1987  0.0000  1.1985  0.1042  0.3383  0.0938  0.0558  0.9556
   4.  C  0.3383  0.1042  1.1985  0.0000  1.1987  0.1042  0.0183  0.0939  0.0558
   5.  C  0.1042  0.3383  0.1042  1.1987  0.0000  1.1985  0.0939  0.0183  0.0938
   6.  C  1.1987  0.1042  0.3383  0.1042  1.1985  0.0000  0.0558  0.0938  0.0183
   7.  H  0.9556  0.0558  0.0938  0.0183  0.0939  0.0558  0.0000  0.0419  0.0171
   8.  H  0.0558  0.9556  0.0558  0.0939  0.0183  0.0938  0.0419  0.0000  0.0419
   9.  H  0.0939  0.0558  0.9556  0.0558  0.0938  0.0183  0.0171  0.0419  0.0000
  10.  H  0.0183  0.0938  0.0558  0.9556  0.0558  0.0939  0.0230  0.0171  0.0419
  11.  H  0.0938  0.0183  0.0939  0.0558  0.9556  0.0558  0.0171  0.0230  0.0171
  12.  H  0.0558  0.0939  0.0183  0.0938  0.0558  0.9556  0.0419  0.0171  0.0230
  13. gh  0.0000  0.0000  0.0000  0.0000  0.0000  0.0000  0.0000  0.0000  0.0000
  14. gh  0.0000  0.0000  0.0000  0.0000  0.0000  0.0000  0.0000  0.0000  0.0000
  15. gh  0.0000  0.0000  0.0000  0.0000  0.0000  0.0000  0.0000  0.0000  0.0000

     Atom   10      11      12      13      14      15
     ---- ------  ------  ------  ------  ------  ------
   1.  C  0.0183  0.0938  0.0558  0.0000  0.0000  0.0000
   2.  C  0.0938  0.0183  0.0939  0.0000  0.0000  0.0000
   3.  C  0.0558  0.0939  0.0183  0.0000  0.0000  0.0000
   4.  C  0.9556  0.0558  0.0938  0.0000  0.0000  0.0000
   5.  C  0.0558  0.9556  0.0558  0.0000  0.0000  0.0000
   6.  C  0.0939  0.0558  0.9556  0.0000  0.0000  0.0000
   7.  H  0.0230  0.0171  0.0419  0.0000  0.0000  0.0000
   8.  H  0.0171  0.0230  0.0171  0.0000  0.0000  0.0000
   9.  H  0.0419  0.0171  0.0230  0.0000  0.0000  0.0000
  10.  H  0.0000  0.0419  0.0171  0.0000  0.0000  0.0000
  11.  H  0.0419  0.0000  0.0419  0.0000  0.0000  0.0000
  12.  H  0.0171  0.0419  0.0000  0.0000  0.0000  0.0000
  13. gh  0.0000  0.0000  0.0000  0.0000  0.0000  0.0000
  14. gh  0.0000  0.0000  0.0000  0.0000  0.0000  0.0000
  15. gh  0.0000  0.0000  0.0000  0.0000  0.0000  0.0000


 NATURAL BOND ORBITAL ANALYSIS:

                            Occupancies       Lewis Structure    Low   High
         Max    Occ     -------------------  -----------------   occ   occ
  Cycle  Ctr   Thresh    Lewis   non-Lewis     CR  BD  nC  LP    (L)   (NL)
 ============================================================================
    1     2     1.90    38.78479   3.21521      6  12   0   3     3      3
    2     2     1.66    40.78274   1.21726      6  15   0   0     0      3
 ----------------------------------------------------------------------------

 Structure accepted: No low occupancy Lewis orbitals

 -------------------------------------------------------
   Core                     11.99998 (100.000% of  12)
   Valence Lewis            28.78277 ( 95.943% of  30)
  ==================      =============================
   Total Lewis              40.78274 ( 97.102% of  42)
  -----------------------------------------------------
   Valence non-Lewis         1.15763 (  2.756% of  42)
   Rydberg non-Lewis         0.05962 (  0.142% of  42)
  ==================      =============================
   Total non-Lewis           1.21726 (  2.898% of  42)
 -------------------------------------------------------


     (Occupancy)   Bond orbital / Coefficients / Hybrids
 ------------------ Lewis ------------------------------------------------------
   1. (2.00000) CR ( 1) C  1            s(100.00%)
                                         1.0000  0.0000  0.0000  0.0000  0.0000
                                         0.0000  0.0000  0.0000  0.0000  0.0000
                                         0.0000  0.0000  0.0000  0.0000  0.0000
                                         0.0000  0.0000  0.0000  0.0000
   2. (2.00000) CR ( 1) C  2            s(100.00%)
                                         1.0000  0.0000  0.0000  0.0000  0.0000
                                         0.0000  0.0000  0.0000  0.0000  0.0000
                                         0.0000  0.0000  0.0000  0.0000  0.0000
                                         0.0000  0.0000  0.0000  0.0000
   3. (2.00000) CR ( 1) C  3            s(100.00%)
                                         1.0000  0.0000  0.0000  0.0000  0.0000
                                         0.0000  0.0000  0.0000  0.0000  0.0000
                                         0.0000  0.0000  0.0000  0.0000  0.0000
                                         0.0000  0.0000  0.0000  0.0000
   4. (2.00000) CR ( 1) C  4            s(100.00%)
                                         1.0000  0.0000  0.0000  0.0000  0.0000
                                         0.0000  0.0000  0.0000  0.0000  0.0000
                                         0.0000  0.0000  0.0000  0.0000  0.0000
                                         0.0000  0.0000  0.0000  0.0000
   5. (2.00000) CR ( 1) C  5            s(100.00%)
                                         1.0000  0.0000  0.0000  0.0000  0.0000
                                         0.0000  0.0000  0.0000  0.0000  0.0000
                                         0.0000  0.0000  0.0000  0.0000  0.0000
                                         0.0000  0.0000  0.0000  0.0000
   6. (2.00000) CR ( 1) C  6            s(100.00%)
                                         1.0000  0.0000  0.0000  0.0000  0.0000
                                         0.0000  0.0000  0.0000  0.0000  0.0000
                                         0.0000  0.0000  0.0000  0.0000  0.0000
                                         0.0000  0.0000  0.0000  0.0000
   7. (1.98148) BD ( 1) C  1- C  2
               ( 50.00%)   0.7071* C  1 s( 35.26%)p 1.83( 64.68%)d 0.00(  0.07%)
                                         0.0000  0.5937 -0.0087 -0.0021 -0.0007
                                         0.5675  0.0062  0.0095 -0.5685  0.0364
                                         0.0027  0.0001  0.0000  0.0000 -0.0202
                                         0.0000  0.0000  0.0028 -0.0161
               ( 50.00%)   0.7071* C  2 s( 35.26%)p 1.83( 64.68%)d 0.00(  0.07%)
                                         0.0000  0.5937 -0.0087 -0.0021 -0.0007
                                        -0.5969  0.0361  0.0022  0.5376  0.0081
                                         0.0097  0.0000  0.0000  0.0000 -0.0204
                                         0.0000  0.0000 -0.0008 -0.0161
   8. (1.98149) BD ( 1) C  1- C  6
               ( 50.00%)   0.7071* C  1 s( 35.26%)p 1.83( 64.67%)d 0.00(  0.07%)
                                         0.0000  0.5938 -0.0087 -0.0021 -0.0007
                                         0.1671  0.0250  0.0095  0.7857 -0.0272
                                         0.0029  0.0000  0.0000  0.0000  0.0109
                                         0.0000  0.0000 -0.0173 -0.0162
               ( 50.00%)   0.7071* C  6 s( 35.27%)p 1.83( 64.67%)d 0.00(  0.07%)
                                         0.0000  0.5938 -0.0087 -0.0021 -0.0007
                                        -0.2087  0.0347  0.0071 -0.7757  0.0128
                                        -0.0069  0.0000  0.0000  0.0000  0.0077
                                         0.0000  0.0000 -0.0189 -0.0161
   9. (1.66453) BD ( 2) C  1- C  6
               ( 50.00%)   0.7071* C  1 s(  0.00%)p 1.00( 99.96%)d 0.00(  0.04%)
                                         0.0000  0.0000  0.0000  0.0000  0.0000
                                         0.0001  0.0000  0.0000 -0.0001  0.0000
                                         0.0000 -0.9994 -0.0241  0.0175  0.0000
                                        -0.0142 -0.0140  0.0000  0.0000
               ( 50.00%)   0.7071* C  6 s(  0.00%)p 1.00( 99.96%)d 0.00(  0.04%)
                                         0.0000  0.0000  0.0000  0.0000  0.0000
                                         0.0001  0.0000  0.0000  0.0000  0.0000
                                         0.0000 -0.9994 -0.0241  0.0175  0.0000
                                        -0.0063  0.0189  0.0000  0.0000
  10. (1.98338) BD ( 1) C  1- H  7
               ( 62.27%)   0.7891* C  1 s( 29.41%)p 2.40( 70.51%)d 0.00(  0.08%)
                                         0.0000  0.5422  0.0137  0.0041  0.0013
                                        -0.8051 -0.0102 -0.0096 -0.2381 -0.0030
                                        -0.0028  0.0000  0.0000  0.0000  0.0123
                                         0.0000  0.0000  0.0189 -0.0159
               ( 37.73%)   0.6143* H  7 s(100.00%)
                                         1.0000  0.0024
  11. (1.98149) BD ( 1) C  2- C  3
               ( 50.00%)   0.7071* C  2 s( 35.27%)p 1.83( 64.67%)d 0.00(  0.07%)
                                         0.0000  0.5938 -0.0087 -0.0021 -0.0007
                                         0.7761 -0.0284  0.0024  0.2071  0.0236
                                         0.0096  0.0000  0.0000  0.0000  0.0126
                                         0.0000  0.0000  0.0161 -0.0161
               ( 50.00%)   0.7071* C  3 s( 35.27%)p 1.83( 64.67%)d 0.00(  0.07%)
                                         0.0000  0.5938 -0.0087 -0.0021 -0.0007
                                        -0.7640  0.0110 -0.0073 -0.2481  0.0353
                                         0.0067  0.0001  0.0000  0.0000  0.0096
                                         0.0000  0.0000  0.0181 -0.0162
  12. (1.66455) BD ( 2) C  2- C  3
               ( 50.00%)   0.7071* C  2 s(  0.00%)p 1.00( 99.96%)d 0.00(  0.04%)
                                         0.0000  0.0000  0.0000  0.0000  0.0000
                                         0.0000  0.0000  0.0000  0.0000  0.0000
                                         0.0000  0.9994  0.0241 -0.0175  0.0000
                                         0.0132  0.0149  0.0000  0.0000
               ( 50.00%)   0.7071* C  3 s(  0.00%)p 1.00( 99.96%)d 0.00(  0.04%)
                                         0.0000  0.0000  0.0000  0.0000  0.0000
                                         0.0001  0.0000  0.0000  0.0000  0.0000
                                         0.0000  0.9994  0.0241 -0.0175  0.0000
                                        -0.0192  0.0053  0.0000  0.0000
  13. (1.98337) BD ( 1) C  2- H  8
               ( 62.27%)   0.7891* C  2 s( 29.41%)p 2.40( 70.51%)d 0.00(  0.08%)
                                         0.0000  0.5421  0.0137  0.0041  0.0013
                                        -0.1965 -0.0025 -0.0023 -0.8163 -0.0103
                                        -0.0097  0.0000  0.0000  0.0000  0.0103
                                         0.0000  0.0000 -0.0201 -0.0159
               ( 37.73%)   0.6143* H  8 s(100.00%)
                                         1.0000  0.0024
  14. (1.98148) BD ( 1) C  3- C  4
               ( 50.00%)   0.7071* C  3 s( 35.26%)p 1.83( 64.68%)d 0.00(  0.07%)
                                         0.0000  0.5937 -0.0087 -0.0021 -0.0007
                                         0.2086 -0.0347 -0.0071  0.7757 -0.0128
                                         0.0069  0.0000  0.0000  0.0000  0.0077
                                         0.0000  0.0000 -0.0189 -0.0161
               ( 50.00%)   0.7071* C  4 s( 35.25%)p 1.83( 64.68%)d 0.00(  0.07%)
                                         0.0000  0.5937 -0.0087 -0.0021 -0.0007
                                        -0.1671 -0.0250 -0.0095 -0.7857  0.0272
                                        -0.0029  0.0000  0.0000  0.0000  0.0109
                                         0.0000  0.0000 -0.0173 -0.0161
  15. (1.98338) BD ( 1) C  3- H  9
               ( 62.27%)   0.7891* C  3 s( 29.41%)p 2.40( 70.51%)d 0.00(  0.08%)
                                         0.0000  0.5422  0.0137  0.0041  0.0013
                                         0.6087  0.0077  0.0073 -0.5782 -0.0073
                                        -0.0069 -0.0001  0.0000  0.0000 -0.0225
                                         0.0000  0.0000  0.0012 -0.0159
               ( 37.73%)   0.6143* H  9 s(100.00%)
                                         1.0000  0.0024
  16. (1.98149) BD ( 1) C  4- C  5
               ( 50.00%)   0.7071* C  4 s( 35.27%)p 1.83( 64.67%)d 0.00(  0.07%)
                                         0.0000  0.5938 -0.0087 -0.0021 -0.0007
                                        -0.5674 -0.0062 -0.0095  0.5685 -0.0364
                                        -0.0027  0.0001  0.0000  0.0000 -0.0202
                                         0.0000  0.0000  0.0028 -0.0161
               ( 50.00%)   0.7071* C  5 s( 35.27%)p 1.83( 64.67%)d 0.00(  0.07%)
                                         0.0000  0.5938 -0.0087 -0.0021 -0.0007
                                         0.5969 -0.0361 -0.0022 -0.5375 -0.0081
                                        -0.0097  0.0000  0.0000  0.0000 -0.0204
                                         0.0000  0.0000 -0.0008 -0.0162
  17. (1.66454) BD ( 2) C  4- C  5
               ( 50.00%)   0.7071* C  4 s(  0.00%)p 1.00( 99.96%)d 0.00(  0.04%)
                                         0.0000  0.0000  0.0000  0.0000  0.0000
                                         0.0000  0.0000  0.0000 -0.0001  0.0000
                                         0.0000  0.9994  0.0241 -0.0175  0.0000
                                        -0.0195  0.0040  0.0000  0.0000
               ( 50.00%)   0.7071* C  5 s(  0.00%)p 1.00( 99.96%)d 0.00(  0.04%)
                                         0.0000  0.0000  0.0000  0.0000  0.0000
                                         0.0000  0.0000  0.0000  0.0000  0.0000
                                         0.0000  0.9994  0.0241 -0.0175  0.0000
                                         0.0050 -0.0193  0.0000  0.0000
  18. (1.98338) BD ( 1) C  4- H 10
               ( 62.27%)   0.7891* C  4 s( 29.41%)p 2.40( 70.51%)d 0.00(  0.08%)
                                         0.0000  0.5422  0.0137  0.0041  0.0013
                                         0.8052  0.0102  0.0096  0.2379  0.0030
                                         0.0028  0.0000  0.0000  0.0000  0.0123
                                         0.0000  0.0000  0.0189 -0.0159
               ( 37.73%)   0.6143* H 10 s(100.00%)
                                         1.0000  0.0024
  19. (1.98148) BD ( 1) C  5- C  6
               ( 50.00%)   0.7071* C  5 s( 35.26%)p 1.83( 64.67%)d 0.00(  0.07%)
                                         0.0000  0.5937 -0.0087 -0.0021 -0.0007
                                        -0.7761  0.0284 -0.0024 -0.2072 -0.0236
                                        -0.0096 -0.0001  0.0000  0.0000  0.0126
                                         0.0000  0.0000  0.0161 -0.0161
               ( 50.00%)   0.7071* C  6 s( 35.26%)p 1.83( 64.68%)d 0.00(  0.07%)
                                         0.0000  0.5937 -0.0087 -0.0021 -0.0007
                                         0.7640 -0.0110  0.0073  0.2481 -0.0353
                                        -0.0067  0.0001  0.0000  0.0000  0.0096
                                         0.0000  0.0000  0.0181 -0.0161
  20. (1.98337) BD ( 1) C  5- H 11
               ( 62.27%)   0.7891* C  5 s( 29.41%)p 2.40( 70.51%)d 0.00(  0.08%)
                                         0.0000  0.5421  0.0137  0.0041  0.0013
                                         0.1964  0.0025  0.0023  0.8163  0.0103
                                         0.0097  0.0000  0.0000  0.0000  0.0103
                                         0.0000  0.0000 -0.0201 -0.0159
               ( 37.73%)   0.6143* H 11 s(100.00%)
                                         1.0000  0.0024
  21. (1.98338) BD ( 1) C  6- H 12
               ( 62.27%)   0.7891* C  6 s( 29.41%)p 2.40( 70.51%)d 0.00(  0.08%)
                                         0.0000  0.5422  0.0137  0.0041  0.0013
                                        -0.6086 -0.0077 -0.0073  0.5783  0.0073
                                         0.0069  0.0000  0.0000  0.0000 -0.0225
                                         0.0000  0.0000  0.0012 -0.0159
               ( 37.73%)   0.6143* H 12 s(100.00%)
                                         1.0000  0.0024
 ---------------- non-Lewis ----------------------------------------------------
  22. (0.01466) BD*( 1) C  1- C  2
               ( 50.00%)   0.7071* C  1 s( 35.26%)p 1.83( 64.68%)d 0.00(  0.07%)
                                         0.0000  0.5937 -0.0087 -0.0021 -0.0007
                                         0.5675  0.0062  0.0095 -0.5685  0.0364
                                         0.0027  0.0001  0.0000  0.0000 -0.0202
                                         0.0000  0.0000  0.0028 -0.0161
               ( 50.00%)  -0.7071* C  2 s( 35.26%)p 1.83( 64.68%)d 0.00(  0.07%)
                                         0.0000  0.5937 -0.0087 -0.0021 -0.0007
                                        -0.5969  0.0361  0.0022  0.5376  0.0081
                                         0.0097  0.0000  0.0000  0.0000 -0.0204
                                         0.0000  0.0000 -0.0008 -0.0161
  23. (0.01465) BD*( 1) C  1- C  6
               ( 50.00%)   0.7071* C  1 s( 35.26%)p 1.83( 64.67%)d 0.00(  0.07%)
                                         0.0000  0.5938 -0.0087 -0.0021 -0.0007
                                         0.1671  0.0250  0.0095  0.7857 -0.0272
                                         0.0029  0.0000  0.0000  0.0000  0.0109
                                         0.0000  0.0000 -0.0173 -0.0162
               ( 50.00%)  -0.7071* C  6 s( 35.27%)p 1.83( 64.67%)d 0.00(  0.07%)
                                         0.0000  0.5938 -0.0087 -0.0021 -0.0007
                                        -0.2087  0.0347  0.0071 -0.7757  0.0128
                                        -0.0069  0.0000  0.0000  0.0000  0.0077
                                         0.0000  0.0000 -0.0189 -0.0161
  24. (0.33236) BD*( 2) C  1- C  6
               ( 50.00%)   0.7071* C  1 s(  0.00%)p 1.00( 99.96%)d 0.00(  0.04%)
                                         0.0000  0.0000  0.0000  0.0000  0.0000
                                        -0.0001  0.0000  0.0000  0.0001  0.0000
                                         0.0000  0.9994  0.0241 -0.0175  0.0000
                                         0.0142  0.0140  0.0000  0.0000
               ( 50.00%)  -0.7071* C  6 s(  0.00%)p 1.00( 99.96%)d 0.00(  0.04%)
                                         0.0000  0.0000  0.0000  0.0000  0.0000
                                        -0.0001  0.0000  0.0000  0.0000  0.0000
                                         0.0000  0.9994  0.0241 -0.0175  0.0000
                                         0.0063 -0.0189  0.0000  0.0000
  25. (0.01211) BD*( 1) C  1- H  7
               ( 37.73%)   0.6143* C  1 s( 29.41%)p 2.40( 70.51%)d 0.00(  0.08%)
                                         0.0000 -0.5422 -0.0137 -0.0041 -0.0013
                                         0.8051  0.0102  0.0096  0.2381  0.0030
                                         0.0028  0.0000  0.0000  0.0000 -0.0123
                                         0.0000  0.0000 -0.0189  0.0159
               ( 62.27%)  -0.7891* H  7 s(100.00%)
                                        -1.0000 -0.0024
  26. (0.01465) BD*( 1) C  2- C  3
               ( 50.00%)   0.7071* C  2 s( 35.27%)p 1.83( 64.67%)d 0.00(  0.07%)
                                         0.0000  0.5938 -0.0087 -0.0021 -0.0007
                                         0.7761 -0.0284  0.0024  0.2071  0.0236
                                         0.0096  0.0000  0.0000  0.0000  0.0126
                                         0.0000  0.0000  0.0161 -0.0161
               ( 50.00%)  -0.7071* C  3 s( 35.27%)p 1.83( 64.67%)d 0.00(  0.07%)
                                         0.0000  0.5938 -0.0087 -0.0021 -0.0007
                                        -0.7640  0.0110 -0.0073 -0.2481  0.0353
                                         0.0067  0.0001  0.0000  0.0000  0.0096
                                         0.0000  0.0000  0.0181 -0.0162
  27. (0.33235) BD*( 2) C  2- C  3
               ( 50.00%)   0.7071* C  2 s(  0.00%)p 1.00( 99.96%)d 0.00(  0.04%)
                                         0.0000  0.0000  0.0000  0.0000  0.0000
                                         0.0000  0.0000  0.0000  0.0000  0.0000
                                         0.0000  0.9994  0.0241 -0.0175  0.0000
                                         0.0132  0.0149  0.0000  0.0000
               ( 50.00%)  -0.7071* C  3 s(  0.00%)p 1.00( 99.96%)d 0.00(  0.04%)
                                         0.0000  0.0000  0.0000  0.0000  0.0000
                                         0.0001  0.0000  0.0000  0.0000  0.0000
                                         0.0000  0.9994  0.0241 -0.0175  0.0000
                                        -0.0192  0.0053  0.0000  0.0000
  28. (0.01211) BD*( 1) C  2- H  8
               ( 37.73%)   0.6143* C  2 s( 29.41%)p 2.40( 70.51%)d 0.00(  0.08%)
                                         0.0000 -0.5421 -0.0137 -0.0041 -0.0013
                                         0.1965  0.0025  0.0023  0.8163  0.0103
                                         0.0097  0.0000  0.0000  0.0000 -0.0103
                                         0.0000  0.0000  0.0201  0.0159
               ( 62.27%)  -0.7891* H  8 s(100.00%)
                                        -1.0000 -0.0024
  29. (0.01466) BD*( 1) C  3- C  4
               ( 50.00%)   0.7071* C  3 s( 35.26%)p 1.83( 64.68%)d 0.00(  0.07%)
                                         0.0000  0.5937 -0.0087 -0.0021 -0.0007
                                         0.2086 -0.0347 -0.0071  0.7757 -0.0128
                                         0.0069  0.0000  0.0000  0.0000  0.0077
                                         0.0000  0.0000 -0.0189 -0.0161
               ( 50.00%)  -0.7071* C  4 s( 35.25%)p 1.83( 64.68%)d 0.00(  0.07%)
                                         0.0000  0.5937 -0.0087 -0.0021 -0.0007
                                        -0.1671 -0.0250 -0.0095 -0.7857  0.0272
                                        -0.0029  0.0000  0.0000  0.0000  0.0109
                                         0.0000  0.0000 -0.0173 -0.0161
  30. (0.01211) BD*( 1) C  3- H  9
               ( 37.73%)   0.6143* C  3 s( 29.41%)p 2.40( 70.51%)d 0.00(  0.08%)
                                         0.0000 -0.5422 -0.0137 -0.0041 -0.0013
                                        -0.6087 -0.0077 -0.0073  0.5782  0.0073
                                         0.0069  0.0001  0.0000  0.0000  0.0225
                                         0.0000  0.0000 -0.0012  0.0159
               ( 62.27%)  -0.7891* H  9 s(100.00%)
                                        -1.0000 -0.0024
  31. (0.01465) BD*( 1) C  4- C  5
               ( 50.00%)   0.7071* C  4 s( 35.27%)p 1.83( 64.67%)d 0.00(  0.07%)
                                         0.0000  0.5938 -0.0087 -0.0021 -0.0007
                                        -0.5674 -0.0062 -0.0095  0.5685 -0.0364
                                        -0.0027  0.0001  0.0000  0.0000 -0.0202
                                         0.0000  0.0000  0.0028 -0.0161
               ( 50.00%)  -0.7071* C  5 s( 35.27%)p 1.83( 64.67%)d 0.00(  0.07%)
                                         0.0000  0.5938 -0.0087 -0.0021 -0.0007
                                         0.5969 -0.0361 -0.0022 -0.5375 -0.0081
                                        -0.0097  0.0000  0.0000  0.0000 -0.0204
                                         0.0000  0.0000 -0.0008 -0.0162
  32. (0.33235) BD*( 2) C  4- C  5
               ( 50.00%)   0.7071* C  4 s(  0.00%)p 1.00( 99.96%)d 0.00(  0.04%)
                                         0.0000  0.0000  0.0000  0.0000  0.0000
                                         0.0000  0.0000  0.0000  0.0001  0.0000
                                         0.0000 -0.9994 -0.0241  0.0175  0.0000
                                         0.0195 -0.0040  0.0000  0.0000
               ( 50.00%)  -0.7071* C  5 s(  0.00%)p 1.00( 99.96%)d 0.00(  0.04%)
                                         0.0000  0.0000  0.0000  0.0000  0.0000
                                         0.0000  0.0000  0.0000  0.0000  0.0000
                                         0.0000 -0.9994 -0.0241  0.0175  0.0000
                                        -0.0050  0.0193  0.0000  0.0000
  33. (0.01211) BD*( 1) C  4- H 10
               ( 37.73%)   0.6143* C  4 s( 29.41%)p 2.40( 70.51%)d 0.00(  0.08%)
                                         0.0000 -0.5422 -0.0137 -0.0041 -0.0013
                                        -0.8052 -0.0102 -0.0096 -0.2379 -0.0030
                                        -0.0028  0.0000  0.0000  0.0000 -0.0123
                                         0.0000  0.0000 -0.0189  0.0159
               ( 62.27%)  -0.7891* H 10 s(100.00%)
                                        -1.0000 -0.0024
  34. (0.01466) BD*( 1) C  5- C  6
               ( 50.00%)   0.7071* C  5 s( 35.26%)p 1.83( 64.67%)d 0.00(  0.07%)
                                         0.0000  0.5937 -0.0087 -0.0021 -0.0007
                                        -0.7761  0.0284 -0.0024 -0.2072 -0.0236
                                        -0.0096 -0.0001  0.0000  0.0000  0.0126
                                         0.0000  0.0000  0.0161 -0.0161
               ( 50.00%)  -0.7071* C  6 s( 35.26%)p 1.83( 64.68%)d 0.00(  0.07%)
                                         0.0000  0.5937 -0.0087 -0.0021 -0.0007
                                         0.7640 -0.0110  0.0073  0.2481 -0.0353
                                        -0.0067  0.0001  0.0000  0.0000  0.0096
                                         0.0000  0.0000  0.0181 -0.0161
  35. (0.01211) BD*( 1) C  5- H 11
               ( 37.73%)   0.6143* C  5 s( 29.41%)p 2.40( 70.51%)d 0.00(  0.08%)
                                         0.0000 -0.5421 -0.0137 -0.0041 -0.0013
                                        -0.1964 -0.0025 -0.0023 -0.8163 -0.0103
                                        -0.0097  0.0000  0.0000  0.0000 -0.0103
                                         0.0000  0.0000  0.0201  0.0159
               ( 62.27%)  -0.7891* H 11 s(100.00%)
                                        -1.0000 -0.0024
  36. (0.01211) BD*( 1) C  6- H 12
               ( 37.73%)   0.6143* C  6 s( 29.41%)p 2.40( 70.51%)d 0.00(  0.08%)
                                         0.0000 -0.5422 -0.0137 -0.0041 -0.0013
                                         0.6086  0.0077  0.0073 -0.5783 -0.0073
                                        -0.0069  0.0000  0.0000  0.0000  0.0225
                                         0.0000  0.0000 -0.0012  0.0159
               ( 62.27%)  -0.7891* H 12 s(100.00%)
                                        -1.0000 -0.0024
  37. (0.00475) RY ( 1) C  1            s(  0.81%)p99.99( 91.81%)d 9.09(  7.38%)
                                         0.0000 -0.0117  0.0797 -0.0244 -0.0321
                                        -0.0256  0.9179  0.0337 -0.0076  0.2715
                                         0.0100  0.0000  0.0000  0.0000 -0.1469
                                         0.0000  0.0000 -0.2267  0.0282
  38. (0.00227) RY ( 2) C  1            s(  0.00%)p 1.00( 98.76%)d 0.01(  1.24%)
                                         0.0000  0.0000  0.0001  0.0000  0.0000
                                        -0.0121 -0.2758 -0.0568  0.0410  0.9325
                                         0.1923  0.0000 -0.0003  0.0000  0.0936
                                         0.0000  0.0000 -0.0605  0.0000
  39. (0.00098) RY ( 3) C  1            s(  0.00%)p 1.00( 93.97%)d 0.06(  6.03%)
                                         0.0000  0.0000  0.0000  0.0000  0.0000
                                         0.0000 -0.0001  0.0000  0.0000  0.0002
                                         0.0000 -0.0237  0.8503 -0.4649  0.0000
                                        -0.1869 -0.1593  0.0000  0.0000
  40. (0.00057) RY ( 4) C  1            s(  0.00%)p 1.00(  0.95%)d99.99( 99.05%)
                                         0.0000  0.0000  0.0003  0.0000 -0.0001
                                         0.0000  0.0000  0.0000  0.0000  0.0000
                                         0.0000  0.0118 -0.0850  0.0465  0.0000
                                         0.3038 -0.9477  0.0001  0.0001
  41. (0.00030) RY ( 5) C  1            s( 98.82%)p 0.01(  0.70%)d 0.00(  0.48%)
                                         0.0000  0.0052  0.8983 -0.4228 -0.0489
                                         0.0157 -0.0774  0.0136  0.0047 -0.0230
                                         0.0041  0.0000  0.0000  0.0000  0.0156
                                        -0.0001  0.0003  0.0250  0.0629
  42. (0.00014) RY ( 6) C  1            s(  0.00%)p 1.00( 16.93%)d 4.91( 83.07%)
                                         0.0000  0.0000 -0.0003  0.0006 -0.0001
                                        -0.0070 -0.0053 -0.1164  0.0237  0.0180
                                         0.3935  0.0000 -0.0001 -0.0001 -0.7648
                                         0.0000  0.0000  0.4957  0.0000
  43. (0.00005) RY ( 7) C  1            s( 94.04%)p 0.00(  0.41%)d 0.06(  5.55%)
  44. (0.00004) RY ( 8) C  1            s(  0.00%)p 1.00( 84.38%)d 0.19( 15.62%)
  45. (0.00001) RY ( 9) C  1            s( 77.85%)p 0.26( 20.33%)d 0.02(  1.82%)
  46. (0.00000) RY (10) C  1            s(  2.02%)p 8.81( 17.83%)d39.58( 80.15%)
  47. (0.00000) RY (11) C  1            s(  3.37%)p 0.10(  0.34%)d28.54( 96.29%)
  48. (0.00000) RY (12) C  1            s( 23.14%)p 2.97( 68.66%)d 0.35(  8.20%)
  49. (0.00000) RY (13) C  1            s(  0.00%)p 1.00( 18.06%)d 4.54( 81.94%)
  50. (0.00000) RY (14) C  1            s(  0.00%)p 1.00( 87.06%)d 0.15( 12.94%)
  51. (0.00475) RY ( 1) C  2            s(  0.81%)p99.99( 91.81%)d 9.08(  7.38%)
                                         0.0000 -0.0117  0.0798 -0.0244 -0.0321
                                        -0.0062  0.2241  0.0083 -0.0260  0.9306
                                         0.0342  0.0000  0.0001  0.0000 -0.1229
                                         0.0000  0.0000  0.2406  0.0282
  52. (0.00227) RY ( 2) C  2            s(  0.00%)p 1.00( 98.76%)d 0.01(  1.24%)
                                         0.0000  0.0000  0.0002  0.0000  0.0000
                                         0.0415  0.9454  0.1949 -0.0100 -0.2276
                                        -0.0468  0.0000 -0.0001  0.0000  0.0993
                                         0.0000  0.0000  0.0506  0.0000
  53. (0.00098) RY ( 3) C  2            s(  0.00%)p 1.00( 93.97%)d 0.06(  6.03%)
                                         0.0000  0.0000  0.0000  0.0000  0.0000
                                         0.0000  0.0001  0.0000  0.0000 -0.0001
                                         0.0000 -0.0237  0.8503 -0.4649  0.0000
                                        -0.1496 -0.1948  0.0000  0.0000
  54. (0.00057) RY ( 4) C  2            s(  0.00%)p 1.00(  0.95%)d99.99( 99.05%)
                                         0.0000  0.0000  0.0001  0.0000  0.0000
                                         0.0000  0.0000  0.0001  0.0000  0.0000
                                         0.0000  0.0118 -0.0851  0.0466  0.0000
                                        -0.9620  0.2549 -0.0001  0.0000
  55. (0.00030) RY ( 5) C  2            s( 98.82%)p 0.01(  0.70%)d 0.00(  0.48%)
                                         0.0000  0.0052  0.8983 -0.4228 -0.0489
                                         0.0038 -0.0191  0.0034  0.0159 -0.0785
                                         0.0139  0.0000  0.0000 -0.0001  0.0130
                                         0.0001  0.0000 -0.0265  0.0629
  56. (0.00014) RY ( 6) C  2            s(  0.00%)p 1.00( 16.93%)d 4.91( 83.07%)
                                         0.0000  0.0000 -0.0002  0.0005  0.0000
                                         0.0240  0.0183  0.3989 -0.0058 -0.0044
                                        -0.0961  0.0000  0.0000  0.0000 -0.8116
                                         0.0001  0.0000 -0.4148  0.0000
  57. (0.00005) RY ( 7) C  2            s( 94.05%)p 0.00(  0.41%)d 0.06(  5.55%)
  58. (0.00004) RY ( 8) C  2            s(  0.00%)p 1.00( 84.38%)d 0.19( 15.62%)
  59. (0.00001) RY ( 9) C  2            s( 77.83%)p 0.26( 20.37%)d 0.02(  1.81%)
  60. (0.00000) RY (10) C  2            s(  2.03%)p 8.79( 17.82%)d39.56( 80.16%)
  61. (0.00000) RY (11) C  2            s(  3.37%)p 0.10(  0.34%)d28.53( 96.29%)
  62. (0.00000) RY (12) C  2            s( 23.16%)p 2.96( 68.64%)d 0.35(  8.20%)
  63. (0.00000) RY (13) C  2            s(  0.00%)p 1.00( 13.73%)d 6.28( 86.27%)
  64. (0.00000) RY (14) C  2            s(  0.00%)p 1.00( 91.39%)d 0.09(  8.61%)
  65. (0.00475) RY ( 1) C  3            s(  0.81%)p99.99( 91.81%)d 9.09(  7.38%)
                                         0.0000 -0.0117  0.0797 -0.0244 -0.0321
                                         0.0194 -0.6940 -0.0255 -0.0184  0.6592
                                         0.0242  0.0000  0.0000  0.0000  0.2698
                                         0.0000  0.0000 -0.0139  0.0282
  66. (0.00227) RY ( 2) C  3            s(  0.00%)p 1.00( 98.76%)d 0.01(  1.24%)
                                         0.0000  0.0000  0.0002  0.0000  0.0000
                                        -0.0294 -0.6697 -0.1381 -0.0310 -0.7051
                                        -0.1453  0.0000  0.0001  0.0000  0.0056
                                         0.0000  0.0000  0.1113  0.0000
  67. (0.00098) RY ( 3) C  3            s(  0.00%)p 1.00( 93.97%)d 0.06(  6.03%)
                                         0.0000  0.0000  0.0000  0.0000  0.0000
                                         0.0000  0.0001  0.0000  0.0000  0.0001
                                         0.0000 -0.0237  0.8503 -0.4649  0.0000
                                         0.2315 -0.0821  0.0000  0.0000
  68. (0.00057) RY ( 4) C  3            s(  0.00%)p 1.00(  0.96%)d99.99( 99.04%)
                                         0.0000  0.0000  0.0002  0.0000  0.0000
                                         0.0000  0.0000  0.0000  0.0000  0.0000
                                         0.0000 -0.0118  0.0852 -0.0466  0.0000
                                        -0.6688 -0.7370 -0.0001  0.0000
  69. (0.00030) RY ( 5) C  3            s( 98.82%)p 0.01(  0.70%)d 0.00(  0.48%)
                                         0.0000  0.0052  0.8983 -0.4228 -0.0489
                                        -0.0119  0.0587 -0.0104  0.0113 -0.0555
                                         0.0097  0.0000  0.0000  0.0001 -0.0294
                                         0.0001  0.0001  0.0010  0.0629
  70. (0.00014) RY ( 6) C  3            s(  0.00%)p 1.00( 16.93%)d 4.91( 83.07%)
                                         0.0000  0.0000 -0.0003  0.0007  0.0000
                                        -0.0170 -0.0130 -0.2825 -0.0179 -0.0136
[...]
   2.                 -0.06   -0.04   -0.03   -0.06   -0.04    0.26    0.14
   3.                 -0.03   -0.05   -0.05   -0.03   -0.05    0.26    0.14
   4.                  0.09   -0.25   -0.31    0.09   -0.25    0.81    0.43
   5.                 -0.40   -0.06    0.00   -0.40   -0.06    0.81    0.43
   6.                 -0.26   -0.26   -0.26   -0.26   -0.26    1.31    0.70
   7.                  0.84    0.84    0.84    0.84    0.84    8.31    1.24
   8.                  0.80    0.46    0.85    0.80    0.46    5.04    3.05
   9.                  0.61    0.95    0.56    0.61    0.95    5.04    3.05
  10.                 -0.26    1.92    2.51   -0.26    1.92    3.75    2.75
  11.                  3.04    0.86    0.27    3.04    0.86    3.75    2.76
  12.                  2.96    2.96    2.96    2.96    2.96    7.09    1.98
  13.                  4.24    4.24    4.24    4.24    4.24   -1.07   -0.53
  14.                 -1.70   -1.70   -1.70   -1.70   -1.70   -6.87   -1.21
  15.                  0.61    2.88    6.78    0.62    2.89   -7.65   -1.62
  16.                  6.24    3.98    0.07    6.24    3.97   -7.65   -1.62
  17.                  0.79    0.79    0.79    0.79    0.79   14.36    6.96
  18.                  0.42    3.88    4.68    0.43    3.89  -14.91   -6.68
  19.                  5.57    2.11    1.31    5.57    2.11  -14.91   -6.68
  20.                  0.91    0.44    0.54    0.91    0.43    5.16    2.44
  21.                  0.35    0.83    0.72    0.35    0.83    5.16    2.44
 -----------------    ------- ------- ------- ------- ------- ------- -------
             Total      24.79   24.79   24.79   24.79   24.79    8.02   10.15

         MO            gh 15
 -----------------    -------
   1.                 -0.02
   2.                  0.14
   3.                  0.14
   4.                  0.43
   5.                  0.43
   6.                  0.70
   7.                  1.24
   8.                  3.05
   9.                  3.05
  10.                  2.75
  11.                  2.76
  12.                  1.98
  13.                 -0.53
  14.                 -1.21
  15.                 -1.62
  16.                 -1.62
  17.                  6.96
  18.                 -6.68
  19.                 -6.68
  20.                  2.44
  21.                  2.44
 -----------------    -------
             Total      10.15


 NATURAL RESONANCE THEORY ANALYSIS:

    Parent structure threshold:  50% of leading weight
 Delocalization list threshold:  1 kcal/mol
         Maximum search cycles:  unlimited
         Number of OMP threads:  8
         OMP stack size/thread:  256M (48M estimated demand)

 C2h symmetry, 4 symmetry operator(s), 4 unique atom permutation(s)
 2 initial TOPO matrices: NLS = 1; NBI = 1; SYM = 0

  cycle  structures    D(w)     kmax  CHOOSE   ION  CULL    E2   SYM  dbmax  dbrms
 ----------------------------------------------------------------------------------
    1       2/2     0.06093412     2       2     0     0    78     0  1.500  1.275
    2      26/56    0.06037178    25      78     0     0     0     0  0.034  0.024

 QPNRT(26/56): D(0)=0.09832084; D(w)=0.06037178; dbmax=0.034; dbrms=0.024
 Timing(sec): search=0.93; Gram matrix=0.06; minimize=0.01; other=0.11
 Warning: resonance hybrid may not reflect the molecular symmetry


 TOPO matrix for the leading resonance structure:

     Atom  1   2   3   4   5   6   7   8   9  10  11  12  13  14  15
     ---- --- --- --- --- --- --- --- --- --- --- --- --- --- --- ---
   1.  C   0   1   0   0   0   2   1   0   0   0   0   0   0   0   0
   2.  C   1   0   2   0   0   0   0   1   0   0   0   0   0   0   0
   3.  C   0   2   0   1   0   0   0   0   1   0   0   0   0   0   0
   4.  C   0   0   1   0   2   0   0   0   0   1   0   0   0   0   0
   5.  C   0   0   0   2   0   1   0   0   0   0   1   0   0   0   0
   6.  C   2   0   0   0   1   0   0   0   0   0   0   1   0   0   0
   7.  H   1   0   0   0   0   0   0   0   0   0   0   0   0   0   0
   8.  H   0   1   0   0   0   0   0   0   0   0   0   0   0   0   0
   9.  H   0   0   1   0   0   0   0   0   0   0   0   0   0   0   0
  10.  H   0   0   0   1   0   0   0   0   0   0   0   0   0   0   0
  11.  H   0   0   0   0   1   0   0   0   0   0   0   0   0   0   0
  12.  H   0   0   0   0   0   1   0   0   0   0   0   0   0   0   0
  13. gh   0   0   0   0   0   0   0   0   0   0   0   0   0   0   0
  14. gh   0   0   0   0   0   0   0   0   0   0   0   0   0   0   0
  15. gh   0   0   0   0   0   0   0   0   0   0   0   0   0   0   0

         Resonance
    RS   Weight(%)                  Added(Removed)
 ---------------------------------------------------------------------------
     1     39.67
     2     39.65    C  1- C  2, ( C  1- C  6), ( C  2- C  3),  C  3- C  4,
                   ( C  4- C  5),  C  5- C  6
     3      1.02    C  2- C  3, ( C  2- H  8), ( C  3- C  4),  C  4
     4      1.02   ( C  3- C  4),  C  4- C  5, ( C  5- H 11),  C  3
     5      1.02   ( C  1- C  2),  C  2- C  3, ( C  3- H  9),  C  1
     6      1.02    C  4- C  5, ( C  4- H 10), ( C  5- C  6),  C  6
     7      1.02    C  1- C  6, ( C  1- H  7), ( C  5- C  6),  C  5
     8      1.02   ( C  1- C  2),  C  1- C  6, ( C  6- H 12),  C  2
     9      1.02    C  1- C  2,  C  1- C  2, ( C  1- C  6), ( C  1- C  6),
                   ( C  2- C  3), ( C  2- H  8),  C  3- C  4, ( C  4- C  5),
                    C  5- C  6,  C  6
    10      1.02    C  1- C  2, ( C  1- C  6), ( C  1- C  6), ( C  2- C  3),
                    C  3- C  4, ( C  4- C  5),  C  5- C  6,  C  5- C  6,
                   ( C  5- H 11),  C  1
    11      1.02    C  1- C  2,  C  1- C  2, ( C  1- C  6), ( C  1- H  7),
                   ( C  2- C  3), ( C  2- C  3),  C  3- C  4, ( C  4- C  5),
                    C  5- C  6,  C  3
    12      1.02    C  1- C  2, ( C  1- C  6), ( C  2- C  3),  C  3- C  4,
                   ( C  4- C  5), ( C  4- C  5),  C  5- C  6,  C  5- C  6,
                   ( C  6- H 12),  C  4
    13      1.02    C  1- C  2, ( C  1- C  6), ( C  2- C  3),  C  3- C  4,
                    C  3- C  4, ( C  3- H  9), ( C  4- C  5), ( C  4- C  5),
                    C  5- C  6,  C  5
    14      1.02    C  1- C  2, ( C  1- C  6), ( C  2- C  3), ( C  2- C  3),
                    C  3- C  4,  C  3- C  4, ( C  4- C  5), ( C  4- H 10),
                    C  5- C  6,  C  2
    15      0.70   ( C  1- C  2),  C  2- C  3, ( C  3- H  9),  H  9
    16      0.70    C  1- C  2, ( C  1- C  6), ( C  2- C  3),  C  3- C  4,
                   ( C  4- C  5), ( C  4- C  5),  C  5- C  6,  C  5- C  6,
                   ( C  6- H 12),  H 12
    17      0.70   ( C  3- C  4),  C  4- C  5, ( C  5- H 11),  H 11
    18      0.70    C  4- C  5, ( C  4- H 10), ( C  5- C  6),  H 10
    19      0.70    C  1- C  2,  C  1- C  2, ( C  1- C  6), ( C  1- C  6),
                   ( C  2- C  3), ( C  2- H  8),  C  3- C  4, ( C  4- C  5),
                    C  5- C  6,  H  8
    20      0.70    C  1- C  2,  C  1- C  2, ( C  1- C  6), ( C  1- H  7),
                   ( C  2- C  3), ( C  2- C  3),  C  3- C  4, ( C  4- C  5),
                    C  5- C  6,  H  7
    21      0.70    C  2- C  3, ( C  2- H  8), ( C  3- C  4),  H  8
    22      0.70    C  1- C  6, ( C  1- H  7), ( C  5- C  6),  H  7
    23      0.70    C  1- C  2, ( C  1- C  6), ( C  1- C  6), ( C  2- C  3),
                    C  3- C  4, ( C  4- C  5),  C  5- C  6,  C  5- C  6,
                   ( C  5- H 11),  H 11
    24      0.70    C  1- C  2, ( C  1- C  6), ( C  2- C  3), ( C  2- C  3),
                    C  3- C  4,  C  3- C  4, ( C  4- C  5), ( C  4- H 10),
                    C  5- C  6,  H 10
    25      0.70   ( C  1- C  2),  C  1- C  6, ( C  6- H 12),  H 12
    26      0.70    C  1- C  2, ( C  1- C  6), ( C  2- C  3),  C  3- C  4,
                    C  3- C  4, ( C  3- H  9), ( C  4- C  5), ( C  4- C  5),
                    C  5- C  6,  H  9
  others    0.00
 ---------------------------------------------------------------------------
          100.00   * Total *


 Natural Bond Order:  (total/covalent/ionic)

     Atom       1      2      3      4      5      6      7      8      9
     ----   ------ ------ ------ ------ ------ ------ ------ ------ ------
   1.  C  t 0.0204 1.4998 0.0000 0.0000 0.0000 1.5002 0.9655 0.0000 0.0000
          c   ---  1.4714 0.0000 0.0000 0.0000 1.4719 0.7286 0.0000 0.0000
          i   ---  0.0283 0.0000 0.0000 0.0000 0.0284 0.2370 0.0000 0.0000

   2.  C  t 1.4998 0.0204 1.5002 0.0000 0.0000 0.0000 0.0000 0.9655 0.0000
          c 1.4714   ---  1.4719 0.0000 0.0000 0.0000 0.0000 0.7286 0.0000
          i 0.0283   ---  0.0284 0.0000 0.0000 0.0000 0.0000 0.2370 0.0000

   3.  C  t 0.0000 1.5002 0.0204 1.4997 0.0000 0.0000 0.0000 0.0000 0.9655
          c 0.0000 1.4719   ---  1.4714 0.0000 0.0000 0.0000 0.0000 0.7286
          i 0.0000 0.0284   ---  0.0283 0.0000 0.0000 0.0000 0.0000 0.2370

   4.  C  t 0.0000 0.0000 1.4997 0.0204 1.5002 0.0000 0.0000 0.0000 0.0000
          c 0.0000 0.0000 1.4714   ---  1.4719 0.0000 0.0000 0.0000 0.0000
          i 0.0000 0.0000 0.0283   ---  0.0284 0.0000 0.0000 0.0000 0.0000

   5.  C  t 0.0000 0.0000 0.0000 1.5002 0.0204 1.4998 0.0000 0.0000 0.0000
          c 0.0000 0.0000 0.0000 1.4719   ---  1.4714 0.0000 0.0000 0.0000
          i 0.0000 0.0000 0.0000 0.0284   ---  0.0283 0.0000 0.0000 0.0000

   6.  C  t 1.5002 0.0000 0.0000 0.0000 1.4998 0.0204 0.0000 0.0000 0.0000
          c 1.4719 0.0000 0.0000 0.0000 1.4714   ---  0.0000 0.0000 0.0000
          i 0.0284 0.0000 0.0000 0.0000 0.0283   ---  0.0000 0.0000 0.0000

   7.  H  t 0.9655 0.0000 0.0000 0.0000 0.0000 0.0000 0.0141 0.0000 0.0000
          c 0.7286 0.0000 0.0000 0.0000 0.0000 0.0000   ---  0.0000 0.0000
          i 0.2370 0.0000 0.0000 0.0000 0.0000 0.0000   ---  0.0000 0.0000

   8.  H  t 0.0000 0.9655 0.0000 0.0000 0.0000 0.0000 0.0000 0.0141 0.0000
          c 0.0000 0.7286 0.0000 0.0000 0.0000 0.0000 0.0000   ---  0.0000
          i 0.0000 0.2370 0.0000 0.0000 0.0000 0.0000 0.0000   ---  0.0000

   9.  H  t 0.0000 0.0000 0.9655 0.0000 0.0000 0.0000 0.0000 0.0000 0.0141
          c 0.0000 0.0000 0.7286 0.0000 0.0000 0.0000 0.0000 0.0000   ---
          i 0.0000 0.0000 0.2370 0.0000 0.0000 0.0000 0.0000 0.0000   ---

  10.  H  t 0.0000 0.0000 0.0000 0.9655 0.0000 0.0000 0.0000 0.0000 0.0000
          c 0.0000 0.0000 0.0000 0.7286 0.0000 0.0000 0.0000 0.0000 0.0000
          i 0.0000 0.0000 0.0000 0.2370 0.0000 0.0000 0.0000 0.0000 0.0000

  11.  H  t 0.0000 0.0000 0.0000 0.0000 0.9655 0.0000 0.0000 0.0000 0.0000
          c 0.0000 0.0000 0.0000 0.0000 0.7286 0.0000 0.0000 0.0000 0.0000
          i 0.0000 0.0000 0.0000 0.0000 0.2370 0.0000 0.0000 0.0000 0.0000

  12.  H  t 0.0000 0.0000 0.0000 0.0000 0.0000 0.9655 0.0000 0.0000 0.0000
          c 0.0000 0.0000 0.0000 0.0000 0.0000 0.7286 0.0000 0.0000 0.0000
          i 0.0000 0.0000 0.0000 0.0000 0.0000 0.2370 0.0000 0.0000 0.0000

  13. gh  t 0.0000 0.0000 0.0000 0.0000 0.0000 0.0000 0.0000 0.0000 0.0000
          c 0.0000 0.0000 0.0000 0.0000 0.0000 0.0000 0.0000 0.0000 0.0000
          i 0.0000 0.0000 0.0000 0.0000 0.0000 0.0000 0.0000 0.0000 0.0000

  14. gh  t 0.0000 0.0000 0.0000 0.0000 0.0000 0.0000 0.0000 0.0000 0.0000
          c 0.0000 0.0000 0.0000 0.0000 0.0000 0.0000 0.0000 0.0000 0.0000
          i 0.0000 0.0000 0.0000 0.0000 0.0000 0.0000 0.0000 0.0000 0.0000

  15. gh  t 0.0000 0.0000 0.0000 0.0000 0.0000 0.0000 0.0000 0.0000 0.0000
          c 0.0000 0.0000 0.0000 0.0000 0.0000 0.0000 0.0000 0.0000 0.0000
          i 0.0000 0.0000 0.0000 0.0000 0.0000 0.0000 0.0000 0.0000 0.0000

     Atom      10     11     12     13     14     15
     ----   ------ ------ ------ ------ ------ ------
   1.  C  t 0.0000 0.0000 0.0000 0.0000 0.0000 0.0000
          c 0.0000 0.0000 0.0000 0.0000 0.0000 0.0000
          i 0.0000 0.0000 0.0000 0.0000 0.0000 0.0000

   2.  C  t 0.0000 0.0000 0.0000 0.0000 0.0000 0.0000
          c 0.0000 0.0000 0.0000 0.0000 0.0000 0.0000
          i 0.0000 0.0000 0.0000 0.0000 0.0000 0.0000

   3.  C  t 0.0000 0.0000 0.0000 0.0000 0.0000 0.0000
          c 0.0000 0.0000 0.0000 0.0000 0.0000 0.0000
          i 0.0000 0.0000 0.0000 0.0000 0.0000 0.0000

   4.  C  t 0.9655 0.0000 0.0000 0.0000 0.0000 0.0000
          c 0.7286 0.0000 0.0000 0.0000 0.0000 0.0000
          i 0.2370 0.0000 0.0000 0.0000 0.0000 0.0000

   5.  C  t 0.0000 0.9655 0.0000 0.0000 0.0000 0.0000
          c 0.0000 0.7286 0.0000 0.0000 0.0000 0.0000
          i 0.0000 0.2370 0.0000 0.0000 0.0000 0.0000

   6.  C  t 0.0000 0.0000 0.9655 0.0000 0.0000 0.0000
          c 0.0000 0.0000 0.7286 0.0000 0.0000 0.0000
          i 0.0000 0.0000 0.2370 0.0000 0.0000 0.0000

   7.  H  t 0.0000 0.0000 0.0000 0.0000 0.0000 0.0000
          c 0.0000 0.0000 0.0000 0.0000 0.0000 0.0000
          i 0.0000 0.0000 0.0000 0.0000 0.0000 0.0000

   8.  H  t 0.0000 0.0000 0.0000 0.0000 0.0000 0.0000
          c 0.0000 0.0000 0.0000 0.0000 0.0000 0.0000
          i 0.0000 0.0000 0.0000 0.0000 0.0000 0.0000

   9.  H  t 0.0000 0.0000 0.0000 0.0000 0.0000 0.0000
          c 0.0000 0.0000 0.0000 0.0000 0.0000 0.0000
          i 0.0000 0.0000 0.0000 0.0000 0.0000 0.0000

  10.  H  t 0.0141 0.0000 0.0000 0.0000 0.0000 0.0000
          c   ---  0.0000 0.0000 0.0000 0.0000 0.0000
          i   ---  0.0000 0.0000 0.0000 0.0000 0.0000

  11.  H  t 0.0000 0.0141 0.0000 0.0000 0.0000 0.0000
          c 0.0000   ---  0.0000 0.0000 0.0000 0.0000
          i 0.0000   ---  0.0000 0.0000 0.0000 0.0000

  12.  H  t 0.0000 0.0000 0.0141 0.0000 0.0000 0.0000
          c 0.0000 0.0000   ---  0.0000 0.0000 0.0000
          i 0.0000 0.0000   ---  0.0000 0.0000 0.0000

  13. gh  t 0.0000 0.0000 0.0000 0.0000 0.0000 0.0000
          c 0.0000 0.0000 0.0000   ---  0.0000 0.0000
          i 0.0000 0.0000 0.0000   ---  0.0000 0.0000

  14. gh  t 0.0000 0.0000 0.0000 0.0000 0.0000 0.0000
          c 0.0000 0.0000 0.0000 0.0000   ---  0.0000
          i 0.0000 0.0000 0.0000 0.0000   ---  0.0000

  15. gh  t 0.0000 0.0000 0.0000 0.0000 0.0000 0.0000
          c 0.0000 0.0000 0.0000 0.0000 0.0000   ---
          i 0.0000 0.0000 0.0000 0.0000 0.0000   ---


 Natural Atomic Valencies, Electron Counts, and Charges:

                      Co-    Electro- Electron  Formal
     Atom  Valency  Valency  Valency   Count    Charge
     ----  -------  -------  -------  -------  -------
   1.  C    3.9655   3.6719   0.2937   7.9718  -0.0063
   2.  C    3.9656   3.6719   0.2937   7.9718  -0.0063
   3.  C    3.9655   3.6719   0.2937   7.9718  -0.0063
   4.  C    3.9655   3.6719   0.2937   7.9718  -0.0063
   5.  C    3.9656   3.6719   0.2937   7.9718  -0.0063
   6.  C    3.9655   3.6719   0.2937   7.9718  -0.0063
   7.  H    0.9655   0.7286   0.2370   1.9593   0.0063
   8.  H    0.9655   0.7286   0.2370   1.9592   0.0063
   9.  H    0.9655   0.7286   0.2370   1.9593   0.0063
  10.  H    0.9655   0.7286   0.2370   1.9593   0.0063
  11.  H    0.9655   0.7286   0.2370   1.9592   0.0063
  12.  H    0.9655   0.7286   0.2370   1.9593   0.0063
  13. gh    0.0000   0.0000   0.0000   0.0000   0.0000
  14. gh    0.0000   0.0000   0.0000   0.0000   0.0000
  15. gh    0.0000   0.0000   0.0000   0.0000   0.0000


 $NRTSTR
   STR        ! Wgt=39.67%; rhoNL=1.21726; D(0)=0.09832
     BOND S 1 2 D 1 6 S 1 7 D 2 3 S 2 8 S 3 4 S 3 9 D 4 5 S 4 10 S 5 6
          S 5 11 S 6 12 END
   END
   STR        ! Wgt=39.65%; rhoNL=1.21837; D(0)=0.09837
     BOND D 1 2 S 1 6 S 1 7 S 2 3 S 2 8 D 3 4 S 3 9 S 4 5 S 4 10 D 5 6
          S 5 11 S 6 12 END
   END
   STR        ! Wgt=1.02%; rhoNL=2.92653; D(0)=0.15242
     LONE 4 1 END
     BOND S 1 2 D 1 6 S 1 7 T 2 3 S 3 9 D 4 5 S 4 10 S 5 6 S 5 11 S 6 12 END
   END
   STR        ! Wgt=1.02%; rhoNL=2.92652; D(0)=0.15242
     LONE 3 1 END
     BOND S 1 2 D 1 6 S 1 7 D 2 3 S 2 8 S 3 9 T 4 5 S 4 10 S 5 6 S 6 12 END
   END
   STR        ! Wgt=1.02%; rhoNL=2.92653; D(0)=0.15242
     LONE 1 1 END
     BOND D 1 6 S 1 7 T 2 3 S 2 8 S 3 4 D 4 5 S 4 10 S 5 6 S 5 11 S 6 12 END
   END
   STR        ! Wgt=1.02%; rhoNL=2.92654; D(0)=0.15242
     LONE 6 1 END
     BOND S 1 2 D 1 6 S 1 7 D 2 3 S 2 8 S 3 4 S 3 9 T 4 5 S 5 11 S 6 12 END
   END
   STR        ! Wgt=1.02%; rhoNL=2.92653; D(0)=0.15242
     LONE 5 1 END
     BOND S 1 2 T 1 6 D 2 3 S 2 8 S 3 4 S 3 9 D 4 5 S 4 10 S 5 11 S 6 12 END
   END
   STR        ! Wgt=1.02%; rhoNL=2.92653; D(0)=0.15242
     LONE 2 1 END
     BOND T 1 6 S 1 7 D 2 3 S 2 8 S 3 4 S 3 9 D 4 5 S 4 10 S 5 6 S 5 11 END
   END
   STR        ! Wgt=1.02%; rhoNL=2.92768; D(0)=0.15245
     LONE 6 1 END
     BOND T 1 2 S 1 7 S 2 3 D 3 4 S 3 9 S 4 5 S 4 10 D 5 6 S 5 11 S 6 12 END
   END
   STR        ! Wgt=1.02%; rhoNL=2.92769; D(0)=0.15245
     LONE 1 1 END
     BOND D 1 2 S 1 7 S 2 3 S 2 8 D 3 4 S 3 9 S 4 5 S 4 10 T 5 6 S 6 12 END
   END
   STR        ! Wgt=1.02%; rhoNL=2.92769; D(0)=0.15245
     LONE 3 1 END
     BOND T 1 2 S 1 6 S 2 8 D 3 4 S 3 9 S 4 5 S 4 10 D 5 6 S 5 11 S 6 12 END
   END
   STR        ! Wgt=1.02%; rhoNL=2.92769; D(0)=0.15245
     LONE 4 1 END
     BOND D 1 2 S 1 6 S 1 7 S 2 3 S 2 8 D 3 4 S 3 9 S 4 10 T 5 6 S 5 11 END
   END
   STR        ! Wgt=1.02%; rhoNL=2.92769; D(0)=0.15245
     LONE 5 1 END
     BOND D 1 2 S 1 6 S 1 7 S 2 3 S 2 8 T 3 4 S 4 10 D 5 6 S 5 11 S 6 12 END
   END
   STR        ! Wgt=1.02%; rhoNL=2.92769; D(0)=0.15245
     LONE 2 1 END
     BOND D 1 2 S 1 6 S 1 7 S 2 8 T 3 4 S 3 9 S 4 5 D 5 6 S 5 11 S 6 12 END
   END
 $END

 NBO analysis completed in 2.16 CPU seconds (2 wall seconds)
 Maximum scratch memory used by NBO was 52835638 words (403.10 MB)
 Maximum scratch memory used by G16NBO was 1089086 words (8.31 MB)

 Opening RunExU unformatted file "/home/wangzhe/g16/Scratch/Gau-11332.EUF"
 Read unf file /home/wangzhe/g16/Scratch/Gau-11332.EUF:
 Label Gaussian matrix elements                                         IVers= 1 NLab= 2 Version=ES64L-G16RevB.01
 Title NICSinput//Created_by_py.Aroma                                  
 NAtoms=    15 NBasis=   126 NBsUse=   126 ICharg=     0 Multip=     1 NE=    42 Len12L=8 Len4L=8 IOpCl= 0 ICGU= -1
 GAUSSIAN SCALARS                    NI= 1 NR= 1 NTot=       1 LenBuf=    2 NRI=1 N=    1000
 NPA CHARGES                         NI= 0 NR= 1 NTot=      15 LenBuf= 4000 NRI=1 N=      15
 Recovered energy= -232.258899521     dipole=      0.000005381850     -0.000000011920     -0.000056242512

 Test job not archived.
 1\1\GINC-RHEL-HPC\SP\RB3LYP\6-31+G(d)\C6H6\WANGZHE\02-Sep-2021\0\\# b3
 lyp/6-31+g(d) nmr pop=nbo6read iop(10/46=1)\\NICSinput//Created_by_py.
 Aroma\\0,1\C,0,-1.339236,-0.395853,0.000005\C,0,-0.326685,-1.35773,0.0
 00069\C,0,1.012421,-0.961878,-0.000055\C,0,1.339202,0.395965,0.000008\
 C,0,0.326798,1.3577,0.000062\C,0,-1.012501,0.961798,-0.000058\H,0,-2.3
 8133,-0.70401,-0.000066\H,0,-0.581086,-2.414245,0.000079\H,0,1.800375,
 -1.710234,-0.000154\H,0,2.381367,0.703858,0.000007\H,0,0.580952,2.4142
 67,0.000018\H,0,-1.800276,1.710353,-0.000063\Bq,0,-0.000006,-0.00001,0
 .000004\Bq,0,0.000009,-0.000057,1.000004\Bq,0,-0.00002,0.000036,-0.999
 996\\Version=ES64L-G16RevB.01\HF=-232.2588995\RMSD=9.468e-10\Dipole=0.
 0000054,0.,-0.0000562\Quadrupole=2.0296798,2.028966,-4.0586458,-0.0000
 774,-0.0000218,0.000051\PG=C01 [X(C6H6)]\\@


 BUT 'GLORY' DOESN'T MEAN 'A NICE KNOCK DOWN ARGUMENT', ALICE OBJECTED.
 WHEN I USE A WORD, HUMPTY DUMPTY SAID, IN A RATHER SCORNFUL TONE,
 IT MEANS JUST WHAT I CHOOSE IT TO MEAN....
 NEITHER MORE NOR LESS....
 THE QUESTION IS, SAID ALICE,
 WHETHER YOU CAN MAKE WORDS MEAN SO MANY DIFFERENT THINGS...
 THE QUESTION IS, SAID HUMPTY DUMPTY,
 WHICH IS TO BE MASTER....
 THAT IS ALL.....

 ALICE THROUGH THE LOOKING GLASS
 Job cpu time:       0 days  0 hours  0 minutes 49.0 seconds.
 Elapsed time:       0 days  0 hours  0 minutes  7.3 seconds.
 File lengths (MBytes):  RWF=     24 Int=      0 D2E=      0 Chk=      2 Scr=      1
 Normal termination of Gaussian 16 at Thu Sep  2 16:33:27 2021.
