
                                 *****************
                                 * O   R   C   A *
                                 *****************

           --- An Ab Initio, DFT and Semiempirical electronic structure package ---

                  #######################################################
                  #                        -***-                        #
                  #          Department of theory and spectroscopy      #
                  #               Directorship: Frank Neese             #
                  #        Max Planck Institute fuer Kohlenforschung    #
                  #                Kaiser Wilhelm Platz 1               #
                  #                 D-45470 Muelheim/Ruhr               #
                  #                      Germany                        #
                  #                                                     #
                  #                  All rights reserved                #
                  #                        -***-                        #
                  #######################################################


                         Program Version 4.2.1 -  RELEASE  -


 With contributions from (in alphabetic order):
   Daniel Aravena         : Magnetic Suceptibility
   Michael Atanasov       : Ab Initio Ligand Field Theory (pilot matlab implementation)
   Alexander A. Auer      : GIAO ZORA, VPT2
   Ute Becker             : Parallelization
   Giovanni Bistoni       : ED, misc. LED, open-shell LED, HFLD
   Martin Brehm           : Molecular dynamics
   Dmytro Bykov           : SCF Hessian
   Vijay G. Chilkuri      : MRCI spin determinant printing, contributions to CSF-ICE
   Dipayan Datta          : RHF DLPNO-CCSD density
   Achintya Kumar Dutta   : EOM-CC, STEOM-CC
   Dmitry Ganyushin       : Spin-Orbit,Spin-Spin,Magnetic field MRCI
   Miquel Garcia          : C-PCM Hessian, Gaussian charge scheme
   Yang Guo               : DLPNO-NEVPT2, CIM, IAO-localization
   Andreas Hansen         : Spin unrestricted coupled pair/coupled cluster methods
   Benjamin Helmich-Paris : CASSCF linear response (MC-RPA)
   Lee Huntington         : MR-EOM, pCC
   Robert Izsak           : Overlap fitted RIJCOSX, COSX-SCS-MP3, EOM
   Christian Kollmar      : KDIIS, OOCD, Brueckner-CCSD(T), CCSD density
   Simone Kossmann        : Meta GGA functionals, TD-DFT gradient, OOMP2, MP2 Hessian
   Martin Krupicka        : AUTO-CI
   Lucas Lang             : DCDCAS
   Dagmar Lenk            : GEPOL surface, SMD
   Dimitrios Liakos       : Extrapolation schemes; Compound Job, initial MDCI parallelization
   Dimitrios Manganas     : Further ROCIS development; embedding schemes
   Dimitrios Pantazis     : SARC Basis sets
   Taras Petrenko         : DFT Hessian,TD-DFT gradient, ASA, ECA, R-Raman, ABS, FL, XAS/XES, NRVS
   Peter Pinski           : DLPNO-MP2, DLPNO-MP2 Gradient
   Christoph Reimann      : Effective Core Potentials
   Marius Retegan         : Local ZFS, SOC
   Christoph Riplinger    : Optimizer, TS searches, QM/MM, DLPNO-CCSD(T), (RO)-DLPNO pert. Triples
   Tobias Risthaus        : Range-separated hybrids, TD-DFT gradient, RPA, STAB
   Michael Roemelt        : Original ROCIS implementation
   Masaaki Saitow         : Open-shell DLPNO-CCSD energy and density
   Barbara Sandhoefer     : DKH picture change effects
   Avijit Sen             : IP-ROCIS
   Kantharuban Sivalingam : CASSCF convergence, NEVPT2, FIC-MRCI
   Bernardo de Souza      : ESD, SOC TD-DFT
   Georgi Stoychev        : AutoAux, RI-MP2 NMR
   Willem Van den Heuvel  : Paramagnetic NMR
   Boris Wezisla          : Elementary symmetry handling
   Frank Wennmohs         : Technical directorship


 We gratefully acknowledge several colleagues who have allowed us to
 interface, adapt or use parts of their codes:
   Stefan Grimme, W. Hujo, H. Kruse,             : VdW corrections, initial TS optimization,
                  C. Bannwarth                     DFT functionals, gCP, sTDA/sTD-DF
   Ed Valeev, F. Pavosevic, A. Kumar             : LibInt (2-el integral package), F12 methods
   Garnet Chan, S. Sharma, J. Yang, R. Olivares  : DMRG
   Ulf Ekstrom                                   : XCFun DFT Library
   Mihaly Kallay                                 : mrcc  (arbitrary order and MRCC methods)
   Andreas Klamt, Michael Diedenhofen            : otool_cosmo (COSMO solvation model)
   Jiri Pittner, Ondrej Demel                    : Mk-CCSD
   Frank Weinhold                                : gennbo (NPA and NBO analysis)
   Christopher J. Cramer and Donald G. Truhlar   : smd solvation model
   Lars Goerigk                                  : TD-DFT with DH, B97 family of functionals
   V. Asgeirsson, H. Jonsson                     : NEB implementation
   FAccTs GmbH                                   : IRC, NEB, NEB-TS, Multilevel, MM, QM/MM, CI optimization
   S Lehtola, MJT Oliveira, MAL Marques          : LibXC Library


 Your calculation uses the libint2 library for the computation of 2-el integrals
 For citations please refer to: http://libint.valeyev.net

 Your ORCA version has been built with support for libXC version: 4.2.3
 For citations please refer to: https://tddft.org/programs/libxc/

 This ORCA versions uses:
   CBLAS   interface :  Fast vector & matrix operations
   LAPACKE interface :  Fast linear algebra routines
   SCALAPACK package :  Parallel linear algebra routines




***************************************
The coordinates will be read from file: tempo_opt.xyz
***************************************


----- Orbital basis set information -----
Your calculation utilizes the basis: EPR-II
   V. Barone, in Recent Advances in Density Functional Methods, Part 1 (ed. D. P. Chong), World Scientific, Singapore, 1995, p. 287.

----- AuxJ basis set information -----
Your calculation utilizes the AutoAux generation procedure.
  G. L. Stoychev, A. A. Auer, F. Neese, J. Chem. Theory Comput. 13, 554 (2017)

----- AuxC basis set information -----
Your calculation utilizes the AutoAux generation procedure.
  G. L. Stoychev, A. A. Auer, F. Neese, J. Chem. Theory Comput. 13, 554 (2017)

----- AuxJK basis set information -----
Your calculation utilizes the AutoAux generation procedure.
  G. L. Stoychev, A. A. Auer, F. Neese, J. Chem. Theory Comput. 13, 554 (2017)

================================================================================
                                        WARNINGS
                       Please study these warnings very carefully!
================================================================================


WARNING: your system is open-shell and RHF/RKS was chosen
  ===> : WILL SWITCH to UHF/UKS


INFO   : the flag for use of LIBINT has been found!

================================================================================
                                       INPUT FILE
================================================================================
NAME = tempo_epr_NHC_2.inp
|  1> !B3LYP EPR-II Autoaux rijcosx pal8
|  2> * xyzfile 0 2 tempo_opt.xyz
|  3> %eprnmr
|  4> 	gtensor 1
|  5> 	Nuclei = all N {aiso, adip, aorb, fgrad, rho}
|  6> 	Nuclei = all C {aiso, adip, aorb, fgrad, rho}
|  7> end
|  8> 
|  9>                          ****END OF INPUT****
================================================================================

                       ****************************
                       * Single Point Calculation *
                       ****************************

---------------------------------
CARTESIAN COORDINATES (ANGSTROEM)
---------------------------------
  C      0.068981    3.575849    1.255502
  C     -1.573337    1.709258    1.254760
  C     -1.313138    3.136025    1.723984
  C     -1.513817    1.539663   -0.272747
  C      0.246527    3.536145   -0.271819
  H      0.816682    2.920793    1.714382
  H     -0.826192    1.050933    1.710361
  H     -2.084887    3.816057    1.351350
  H      0.293291    4.590155    1.595713
  H     -2.549506    1.355625    1.596551
  H     -1.367430    3.183458    2.814854
  N     -0.316575    2.258264   -0.827619
  O     -0.031972    2.008049   -2.047049
  C     -1.355861    0.053902   -0.615227
  H     -0.422673   -0.340085   -0.209161
  H     -1.352099   -0.099961   -1.692439
  H     -2.185084   -0.507432   -0.179751
  C     -2.786352    2.082415   -0.949123
  H     -2.667624    2.055441   -2.032445
  H     -3.007892    3.106763   -0.651023
  H     -3.642135    1.460277   -0.678814
  C     -0.449452    4.731552   -0.948525
  H      0.067925    5.656843   -0.686356
  H     -1.490831    4.834343   -0.642825
  H     -0.417377    4.612844   -2.031776
  C      1.740633    3.562991   -0.612370
  H      2.245666    2.687147   -0.201937
  H      2.194731    4.457058   -0.180107
  H      1.895532    3.574456   -1.689300

----------------------------
CARTESIAN COORDINATES (A.U.)
----------------------------
  NO LB      ZA    FRAG     MASS         X           Y           Z
   0 C     6.0000    0    12.011    0.130356    6.757376    2.372555
   1 C     6.0000    0    12.011   -2.973177    3.230030    2.371153
   2 C     6.0000    0    12.011   -2.481471    5.926228    3.257858
   3 C     6.0000    0    12.011   -2.860700    2.909541   -0.515417
   4 C     6.0000    0    12.011    0.465869    6.682345   -0.513664
   5 H     1.0000    0     1.008    1.543306    5.519500    3.239713
   6 H     1.0000    0     1.008   -1.561277    1.985976    3.232115
   7 H     1.0000    0     1.008   -3.939866    7.211302    2.553682
   8 H     1.0000    0     1.008    0.554239    8.674135    3.015461
   9 H     1.0000    0     1.008   -4.817868    2.561760    3.017044
  10 H     1.0000    0     1.008   -2.584068    6.015863    5.319304
  11 N     7.0000    0    14.007   -0.598240    4.267500   -1.563974
  12 O     8.0000    0    15.999   -0.060419    3.794663   -3.868362
  13 C     6.0000    0    12.011   -2.562206    0.101860   -1.162610
  14 H     1.0000    0     1.008   -0.798737   -0.642667   -0.395257
  15 H     1.0000    0     1.008   -2.555096   -0.188900   -3.198246
  16 H     1.0000    0     1.008   -4.129210   -0.958907   -0.339681
  17 C     6.0000    0    12.011   -5.265443    3.935195   -1.793583
  18 H     1.0000    0     1.008   -5.041079    3.884221   -3.840765
  19 H     1.0000    0     1.008   -5.684092    5.870931   -1.230256
  20 H     1.0000    0     1.008   -6.882637    2.759523   -1.282773
  21 C     6.0000    0    12.011   -0.849342    8.941337   -1.792453
  22 H     1.0000    0     1.008    0.128360   10.689884   -1.297025
  23 H     1.0000    0     1.008   -2.817262    9.135585   -1.214764
  24 H     1.0000    0     1.008   -0.788728    8.717011   -3.839499
  25 C     6.0000    0    12.011    3.289320    6.733077   -1.157212
  26 H     1.0000    0     1.008    4.243693    5.077972   -0.381606
  27 H     1.0000    0     1.008    4.147440    8.422619   -0.340352
  28 H     1.0000    0     1.008    3.582037    6.754742   -3.192314

--------------------------------
INTERNAL COORDINATES (ANGSTROEM)
--------------------------------
 C      0   0   0     0.000000000000     0.00000000     0.00000000
 C      1   0   0     2.486237225103     0.00000000     0.00000000
 C      1   2   0     1.524196775455    35.35905853     0.00000000
 C      2   1   3     1.538044739535    93.29739701   127.96805449
 C      1   2   3     1.538118853476    93.24310141   231.92718120
 H      1   2   3     1.094863387587    90.11748566   123.11070541
 H      2   1   3     1.095075484475    90.03018349   236.69538901
 H      3   1   2     1.094027467794   110.83075666   237.50071660
 H      1   2   3     1.093102452133   146.33502715     2.01524035
 H      2   1   3     1.093061219421   146.37945358   357.69468205
 H      3   1   2     1.093249914504   109.82850680   120.54958703
 N      4   2   1     1.502551612229   110.17302925    15.01059399
 O     12   4   2     1.276955005779   115.88253764   168.69005117
 C      4   2   1     1.532881830759   109.43617419   132.87374008
 H     14   4   2     1.091308505598   110.78768384   298.06188600
 H     14   4   2     1.088151731253   111.01331032   177.66348111
 H     14   4   2     1.091945799891   109.32402342    57.44237234
 C      4   2   1     1.539938795293   111.43043083   253.72976801
 H     18   4   2     1.090142060202   109.74018747   173.46831096
 H     18   4   2     1.089601492782   112.28374632    52.71453410
 H     18   4   2     1.092010889235   109.75955038   292.61439050
 C      5   1   2     1.539907946847   111.35538318   106.46387642
 H     22   5   1     1.092051360568   109.76244515    67.97465202
 H     22   5   1     1.090178096766   112.43901068   308.01367191
 H     22   5   1     1.090207260405   109.80487266   187.13385528
 C      5   1   2     1.532660470305   109.43339216   227.32406667
 H     26   5   1     1.091153110266   110.70534308    61.78919847
 H     26   5   1     1.091976231848   109.37640111   302.39342018
 H     26   5   1     1.088073088492   111.03168997   182.18406915

---------------------------
INTERNAL COORDINATES (A.U.)
---------------------------
 C      0   0   0     0.000000000000     0.00000000     0.00000000
 C      1   0   0     4.698307459405     0.00000000     0.00000000
 C      1   2   0     2.880314479816    35.35905853     0.00000000
 C      2   1   3     2.906483339438    93.29739701   127.96805449
 C      1   2   3     2.906623394490    93.24310141   231.92718120
 H      1   2   3     2.068991956597    90.11748566   123.11070541
 H      2   1   3     2.069392761629    90.03018349   236.69538901
 H      3   1   2     2.067412297118   110.83075666   237.50071660
 H      1   2   3     2.065664270849   146.33502715     2.01524035
 H      2   1   3     2.065586352315   146.37945358   357.69468205
 H      3   1   2     2.065942934345   109.82850680   120.54958703
 N      4   2   1     2.839411049194   110.17302925    15.01059399
 O     12   4   2     2.413095246262   115.88253764   168.69005117
 C      4   2   1     2.896726855799   109.43617419   132.87374008
 H     14   4   2     2.062274203199   110.78768384   298.06188600
 H     14   4   2     2.056308764220   111.01331032   177.66348111
 H     14   4   2     2.063478514879   109.32402342    57.44237234
 C      4   2   1     2.910062586104   111.43043083   253.72976801
 H     18   4   2     2.060069940851   109.74018747   173.46831096
 H     18   4   2     2.059048416469   112.28374632    52.71453410
 H     18   4   2     2.063601515914   109.75955038   292.61439050
 C      5   1   2     2.910004290990   111.35538318   106.46387642
 H     22   5   1     2.063677995650   109.76244515    67.97465202
 H     22   5   1     2.060138040087   112.43901068   308.01367191
 H     22   5   1     2.060193151379   109.80487266   187.13385528
 C      5   1   2     2.896308545163   109.43339216   227.32406667
 H     26   5   1     2.061980548579   110.70534308    61.78919847
 H     26   5   1     2.063536022943   109.37640111   302.39342018
 H     26   5   1     2.056160150940   111.03168997   182.18406915

---------------------
BASIS SET INFORMATION
---------------------
There are 4 groups of distinct atoms

 Group   1 Type C   : 10s5p1d contracted to 6s2p1d pattern {511111/41/1}
 Group   2 Type H   : 6s1p contracted to 4s1p pattern {3111/1}
 Group   3 Type N   : 10s5p1d contracted to 6s2p1d pattern {511111/41/1}
 Group   4 Type O   : 10s5p1d contracted to 6s2p1d pattern {511111/41/1}

Atom   0C    basis set group =>   1
Atom   1C    basis set group =>   1
Atom   2C    basis set group =>   1
Atom   3C    basis set group =>   1
Atom   4C    basis set group =>   1
Atom   5H    basis set group =>   2
Atom   6H    basis set group =>   2
Atom   7H    basis set group =>   2
Atom   8H    basis set group =>   2
Atom   9H    basis set group =>   2
Atom  10H    basis set group =>   2
Atom  11N    basis set group =>   3
Atom  12O    basis set group =>   4
Atom  13C    basis set group =>   1
Atom  14H    basis set group =>   2
Atom  15H    basis set group =>   2
Atom  16H    basis set group =>   2
Atom  17C    basis set group =>   1
Atom  18H    basis set group =>   2
Atom  19H    basis set group =>   2
Atom  20H    basis set group =>   2
Atom  21C    basis set group =>   1
Atom  22H    basis set group =>   2
Atom  23H    basis set group =>   2
Atom  24H    basis set group =>   2
Atom  25C    basis set group =>   1
Atom  26H    basis set group =>   2
Atom  27H    basis set group =>   2
Atom  28H    basis set group =>   2
---------------------------------
AUXILIARY/J BASIS SET INFORMATION
---------------------------------
There are 4 groups of distinct atoms

 Group   1 Type C   : 17s13p12d2f contracted to 17s13p12d2f pattern {11111111111111111/1111111111111/111111111111/11}
 Group   2 Type H   : 15s6p1d contracted to 15s6p1d pattern {111111111111111/111111/1}
 Group   3 Type N   : 17s13p12d2f contracted to 17s13p12d2f pattern {11111111111111111/1111111111111/111111111111/11}
 Group   4 Type O   : 17s13p12d2f contracted to 17s13p12d2f pattern {11111111111111111/1111111111111/111111111111/11}

Atom   0C    basis set group =>   1
Atom   1C    basis set group =>   1
Atom   2C    basis set group =>   1
Atom   3C    basis set group =>   1
Atom   4C    basis set group =>   1
Atom   5H    basis set group =>   2
Atom   6H    basis set group =>   2
Atom   7H    basis set group =>   2
Atom   8H    basis set group =>   2
Atom   9H    basis set group =>   2
Atom  10H    basis set group =>   2
Atom  11N    basis set group =>   3
Atom  12O    basis set group =>   4
Atom  13C    basis set group =>   1
Atom  14H    basis set group =>   2
Atom  15H    basis set group =>   2
Atom  16H    basis set group =>   2
Atom  17C    basis set group =>   1
Atom  18H    basis set group =>   2
Atom  19H    basis set group =>   2
Atom  20H    basis set group =>   2
Atom  21C    basis set group =>   1
Atom  22H    basis set group =>   2
Atom  23H    basis set group =>   2
Atom  24H    basis set group =>   2
Atom  25C    basis set group =>   1
Atom  26H    basis set group =>   2
Atom  27H    basis set group =>   2
Atom  28H    basis set group =>   2
---------------------------------
AUXILIARY/C BASIS SET INFORMATION
---------------------------------
There are 4 groups of distinct atoms

 Group   1 Type C   : 17s13p12d2f contracted to 17s13p12d2f pattern {11111111111111111/1111111111111/111111111111/11}
 Group   2 Type H   : 15s6p1d contracted to 15s6p1d pattern {111111111111111/111111/1}
 Group   3 Type N   : 17s13p12d2f contracted to 17s13p12d2f pattern {11111111111111111/1111111111111/111111111111/11}
 Group   4 Type O   : 17s13p12d2f contracted to 17s13p12d2f pattern {11111111111111111/1111111111111/111111111111/11}

Atom   0C    basis set group =>   1
Atom   1C    basis set group =>   1
Atom   2C    basis set group =>   1
Atom   3C    basis set group =>   1
Atom   4C    basis set group =>   1
Atom   5H    basis set group =>   2
Atom   6H    basis set group =>   2
Atom   7H    basis set group =>   2
Atom   8H    basis set group =>   2
Atom   9H    basis set group =>   2
Atom  10H    basis set group =>   2
Atom  11N    basis set group =>   3
Atom  12O    basis set group =>   4
Atom  13C    basis set group =>   1
Atom  14H    basis set group =>   2
Atom  15H    basis set group =>   2
Atom  16H    basis set group =>   2
Atom  17C    basis set group =>   1
Atom  18H    basis set group =>   2
Atom  19H    basis set group =>   2
Atom  20H    basis set group =>   2
Atom  21C    basis set group =>   1
Atom  22H    basis set group =>   2
Atom  23H    basis set group =>   2
Atom  24H    basis set group =>   2
Atom  25C    basis set group =>   1
Atom  26H    basis set group =>   2
Atom  27H    basis set group =>   2
Atom  28H    basis set group =>   2
----------------------------------
AUXILIARY/JK BASIS SET INFORMATION
----------------------------------
There are 4 groups of distinct atoms

 Group   1 Type C   : 17s13p12d2f contracted to 17s13p12d2f pattern {11111111111111111/1111111111111/111111111111/11}
 Group   2 Type H   : 15s6p1d contracted to 15s6p1d pattern {111111111111111/111111/1}
 Group   3 Type N   : 17s13p12d2f contracted to 17s13p12d2f pattern {11111111111111111/1111111111111/111111111111/11}
 Group   4 Type O   : 17s13p12d2f contracted to 17s13p12d2f pattern {11111111111111111/1111111111111/111111111111/11}

Atom   0C    basis set group =>   1
Atom   1C    basis set group =>   1
Atom   2C    basis set group =>   1
Atom   3C    basis set group =>   1
Atom   4C    basis set group =>   1
Atom   5H    basis set group =>   2
Atom   6H    basis set group =>   2
Atom   7H    basis set group =>   2
Atom   8H    basis set group =>   2
Atom   9H    basis set group =>   2
Atom  10H    basis set group =>   2
Atom  11N    basis set group =>   3
Atom  12O    basis set group =>   4
Atom  13C    basis set group =>   1
Atom  14H    basis set group =>   2
Atom  15H    basis set group =>   2
Atom  16H    basis set group =>   2
Atom  17C    basis set group =>   1
Atom  18H    basis set group =>   2
Atom  19H    basis set group =>   2
Atom  20H    basis set group =>   2
Atom  21C    basis set group =>   1
Atom  22H    basis set group =>   2
Atom  23H    basis set group =>   2
Atom  24H    basis set group =>   2
Atom  25C    basis set group =>   1
Atom  26H    basis set group =>   2
Atom  27H    basis set group =>   2
Atom  28H    basis set group =>   2


           ************************************************************
           *        Program running with 8 parallel MPI-processes     *
           *              working on a common directory               *
           ************************************************************
------------------------------------------------------------------------------
                           ORCA GTO INTEGRAL CALCULATION
                           -- RI-GTO INTEGRALS CHOSEN --
------------------------------------------------------------------------------

                         BASIS SET STATISTICS AND STARTUP INFO

Gaussian basis set:
 # of primitive gaussian shells          ...  302
 # of primitive gaussian functions       ...  492
 # of contracted shells                  ...  189
 # of contracted basis functions         ...  313
 Highest angular momentum                ...    2
 Maximum contraction depth               ...    5
Auxiliary gaussian basis set:
 # of primitive gaussian shells          ...  880
 # of primitive gaussian functions       ... 2114
 # of contracted shells                  ...  880
 # of contracted aux-basis functions     ... 2114
 Highest angular momentum                ...    3
 Maximum contraction depth               ...    1
Ratio of auxiliary to basis functions    ...  6.75
Integral package used                  ... LIBINT
 One Electron integrals                  ... done
 Ordering auxiliary basis shells         ... done
 Integral threshhold             Thresh  ...  1.000e-10
 Primitive cut-off               TCut    ...  1.000e-11
 Pre-screening matrix                    ... done
 Shell pair data                         ... 
 Ordering of the shell pairs             ... done (   0.002 sec) 13968 of 17955 pairs
 Determination of significant pairs      ... done (   0.000 sec)
 Creation of shell pair data             ... done (   0.001 sec)
 Storage of shell pair data              ... done (   0.002 sec)
 Shell pair data done in (   0.006 sec)
 Computing two index integrals           ... done
 Cholesky decomposition of the V-matrix  ... done


Timings:
 Total evaluation time                   ...   0.536 sec (  0.009 min)
 One electron matrix time                ...   0.104 sec (  0.002 min) = 19.5%
 Schwartz matrix evaluation time         ...   0.091 sec (  0.002 min) = 17.1%
 Two index repulsion integral time       ...   0.080 sec (  0.001 min) = 15.0%
 Cholesky decomposition of V             ...   0.230 sec (  0.004 min) = 43.0%
 Three index repulsion integral time     ...   0.000 sec (  0.000 min) =  0.0%



           ************************************************************
           *        Program running with 8 parallel MPI-processes     *
           *              working on a common directory               *
           ************************************************************
-------------------------------------------------------------------------------
                                 ORCA SCF
-------------------------------------------------------------------------------

------------
SCF SETTINGS
------------
Hamiltonian:
 Density Functional     Method          .... DFT(GTOs)
 Exchange Functional    Exchange        .... B88
   X-Alpha parameter    XAlpha          ....  0.666667
   Becke's b parameter  XBeta           ....  0.004200
 Correlation Functional Correlation     .... LYP
 LDA part of GGA corr.  LDAOpt          .... VWN-5
 Gradients option       PostSCFGGA      .... off
 Hybrid DFT is turned on
   Fraction HF Exchange ScalHFX         ....  0.200000
   Scaling of DF-GGA-X  ScalDFX         ....  0.720000
   Scaling of DF-GGA-C  ScalDFC         ....  0.810000
   Scaling of DF-LDA-C  ScalLDAC        ....  1.000000
   Perturbative correction              ....  0.000000
   Density functional embedding theory  .... OFF
   NL short-range parameter             ....  4.800000
 RI-approximation to the Coulomb term is turned on
   Number of auxiliary basis functions  .... 2114
   RIJ-COSX (HFX calculated with COS-X)).... on


General Settings:
 Integral files         IntName         .... tempo_epr_NHC_2
 Hartree-Fock type      HFTyp           .... UHF
 Total Charge           Charge          ....    0
 Multiplicity           Mult            ....    2
 Number of Electrons    NEL             ....   87
 Basis Dimension        Dim             ....  313
 Nuclear Repulsion      ENuc            ....    715.0905126022 Eh

Convergence Acceleration:
 DIIS                   CNVDIIS         .... on
   Start iteration      DIISMaxIt       ....    12
   Startup error        DIISStart       ....  0.200000
   # of expansion vecs  DIISMaxEq       ....     5
   Bias factor          DIISBfac        ....   1.050
   Max. coefficient     DIISMaxC        ....  10.000
 Newton-Raphson         CNVNR           .... off
 SOSCF                  CNVSOSCF        .... off
 Level Shifting         CNVShift        .... on
   Level shift para.    LevelShift      ....    0.2500
   Turn off err/grad.   ShiftErr        ....    0.0010
 Zerner damping         CNVZerner       .... off
 Static damping         CNVDamp         .... on
   Fraction old density DampFac         ....    0.7000
   Max. Damping (<1)    DampMax         ....    0.9800
   Min. Damping (>=0)   DampMin         ....    0.0000
   Turn off err/grad.   DampErr         ....    0.1000
 Fernandez-Rico         CNVRico         .... off

SCF Procedure:
 Maximum # iterations   MaxIter         ....   125
 SCF integral mode      SCFMode         .... Direct
   Integral package                     .... LIBINT
 Reset frequency        DirectResetFreq ....    20
 Integral Threshold     Thresh          ....  1.000e-10 Eh
 Primitive CutOff       TCut            ....  1.000e-11 Eh

Convergence Tolerance:
 Convergence Check Mode ConvCheckMode   .... Total+1el-Energy
 Convergence forced     ConvForced      .... 0
 Energy Change          TolE            ....  1.000e-06 Eh
 1-El. energy change                    ....  1.000e-03 Eh
 DIIS Error             TolErr          ....  1.000e-06


Diagonalization of the overlap matrix:
Smallest eigenvalue                        ... 3.691e-04
Time for diagonalization                   ...    0.032 sec
Threshold for overlap eigenvalues          ... 1.000e-08
Number of eigenvalues below threshold      ... 0
Time for construction of square roots      ...    0.033 sec
Total time needed                          ...    0.066 sec

-------------------
DFT GRID GENERATION
-------------------

General Integration Accuracy     IntAcc      ...  4.340
Radial Grid Type                 RadialGrid  ... Gauss-Chebyshev
Angular Grid (max. acc.)         AngularGrid ... Lebedev-110
Angular grid pruning method      GridPruning ... 3 (G Style)
Weight generation scheme         WeightScheme... Becke
Basis function cutoff            BFCut       ...    1.0000e-10
Integration weight cutoff        WCut        ...    1.0000e-14
Grids for H and He will be reduced by one unit

# of grid points (after initial pruning)     ...  32614 (   0.0 sec)
# of grid points (after weights+screening)   ...  28889 (   0.0 sec)
nearest neighbour list constructed           ...    0.0 sec
Grid point re-assignment to atoms done       ...    0.0 sec
Grid point division into batches done        ...    0.0 sec
Reduced shell lists constructed in    0.1 sec

Total number of grid points                  ...    28889
Total number of batches                      ...      468
Average number of points per batch           ...       61
Average number of grid points per atom       ...      996
Average number of shells per batch           ...   114.65 (60.66%)
Average number of basis functions per batch  ...   219.52 (70.13%)
Average number of large shells per batch     ...    89.25 (77.85%)
Average number of large basis fcns per batch ...   170.35 (77.60%)
Maximum spatial batch extension              ...   3.38,  2.47,  3.00 au
Average spatial batch extension              ...   0.20,  0.19,  0.20 au

Time for grid setup =    0.109 sec

------------------------------
INITIAL GUESS: MODEL POTENTIAL
------------------------------
Loading Hartree-Fock densities                     ... done
Calculating cut-offs                               ... done
Setting up the integral package                    ... done
Initializing the effective Hamiltonian             ... done
Starting the Coulomb interaction                   ... done (   0.1 sec)
Reading the grid                                   ... done
Mapping shells                                     ... done
Starting the XC term evaluation                    ... done (   0.1 sec)
  promolecular density results
     # of electrons  =     87.006227815
     EX              =    -66.411598118
     EC              =     -2.873986467
     EX+EC           =    -69.285584585
Transforming the Hamiltonian                       ... done (   0.0 sec)
Diagonalizing the Hamiltonian                      ... done (   0.0 sec)
Back transforming the eigenvectors                 ... done (   0.0 sec)
Now organizing SCF variables                       ... done
                      ------------------
                      INITIAL GUESS DONE (   0.4 sec)
                      ------------------
--------------------
COSX GRID GENERATION
--------------------

General Integration Accuracy     IntAcc      ...  3.340
Radial Grid Type                 RadialGrid  ... Gauss-Chebyshev
Angular Grid (max. acc.)         AngularGrid ... Lebedev-50
Angular grid pruning method      GridPruning ... 3 (G Style)
Weight generation scheme         WeightScheme... Becke
Basis function cutoff            BFCut       ...    1.0000e-10
Integration weight cutoff        WCut        ...    1.0000e-14
Grids for H and He will be reduced by one unit

# of grid points (after initial pruning)     ...  12126 (   0.0 sec)
# of grid points (after weights+screening)   ...  10813 (   0.0 sec)
nearest neighbour list constructed           ...    0.0 sec
Grid point re-assignment to atoms done       ...    0.0 sec
Grid point division into batches done        ...    0.0 sec
Reduced shell lists constructed in    0.0 sec

Total number of grid points                  ...    10813
Total number of batches                      ...      181
Average number of points per batch           ...       59
Average number of grid points per atom       ...      373
Average number of shells per batch           ...   115.04 (60.87%)
Average number of basis functions per batch  ...   219.21 (70.03%)
Average number of large shells per batch     ...    89.00 (77.36%)
Average number of large basis fcns per batch ...   169.83 (77.48%)
Maximum spatial batch extension              ...   3.31,  2.64,  2.79 au
Average spatial batch extension              ...   0.23,  0.24,  0.22 au

Overlap Fitting                  UseSFitting ... on
Constructing numerical overlap ... done (      0.0 sec)
Inverting numerical overlap    ... done (      0.0 sec)
Obtaining analytic overlap     ... done (      0.0 sec)
Final contraction and storage  ... done (      0.0 sec)


General Integration Accuracy     IntAcc      ...  3.670
Radial Grid Type                 RadialGrid  ... Gauss-Chebyshev
Angular Grid (max. acc.)         AngularGrid ... Lebedev-50
Angular grid pruning method      GridPruning ... 3 (G Style)
Weight generation scheme         WeightScheme... Becke
Basis function cutoff            BFCut       ...    1.0000e-10
Integration weight cutoff        WCut        ...    1.0000e-14
Grids for H and He will be reduced by one unit

# of grid points (after initial pruning)     ...  15638 (   0.0 sec)
# of grid points (after weights+screening)   ...  13914 (   0.0 sec)
nearest neighbour list constructed           ...    0.0 sec
Grid point re-assignment to atoms done       ...    0.0 sec
Grid point division into batches done        ...    0.0 sec
Reduced shell lists constructed in    0.0 sec

Total number of grid points                  ...    13914
Total number of batches                      ...      233
Average number of points per batch           ...       59
Average number of grid points per atom       ...      480
Average number of shells per batch           ...   115.48 (61.10%)
Average number of basis functions per batch  ...   219.94 (70.27%)
Average number of large shells per batch     ...    89.81 (77.77%)
Average number of large basis fcns per batch ...   171.61 (78.03%)
Maximum spatial batch extension              ...   2.63,  2.61,  2.76 au
Average spatial batch extension              ...   0.23,  0.24,  0.22 au

Overlap Fitting                  UseSFitting ... on
Constructing numerical overlap ... done (      0.0 sec)
Inverting numerical overlap    ... done (      0.0 sec)
Obtaining analytic overlap     ... done (      0.0 sec)
Final contraction and storage  ... done (      0.0 sec)


General Integration Accuracy     IntAcc      ...  4.010
Radial Grid Type                 RadialGrid  ... Gauss-Chebyshev
Angular Grid (max. acc.)         AngularGrid ... Lebedev-110
Angular grid pruning method      GridPruning ... 3 (G Style)
Weight generation scheme         WeightScheme... Becke
Basis function cutoff            BFCut       ...    1.0000e-10
Integration weight cutoff        WCut        ...    1.0000e-14
Grids for H and He will be reduced by one unit

# of grid points (after initial pruning)     ...  28126 (   0.0 sec)
# of grid points (after weights+screening)   ...  24991 (   0.0 sec)
nearest neighbour list constructed           ...    0.0 sec
Grid point re-assignment to atoms done       ...    0.0 sec
Grid point division into batches done        ...    0.0 sec
Reduced shell lists constructed in    0.0 sec

Total number of grid points                  ...    24991
Total number of batches                      ...      406
Average number of points per batch           ...       61
Average number of grid points per atom       ...      862
Average number of shells per batch           ...   115.81 (61.27%)
Average number of basis functions per batch  ...   221.65 (70.82%)
Average number of large shells per batch     ...    90.65 (78.28%)
Average number of large basis fcns per batch ...   172.62 (77.88%)
Maximum spatial batch extension              ...   3.63,  2.75,  4.13 au
Average spatial batch extension              ...   0.21,  0.21,  0.21 au

Overlap Fitting                  UseSFitting ... on
Constructing numerical overlap ... done (      0.0 sec)
Inverting numerical overlap    ... done (      0.0 sec)
Obtaining analytic overlap     ... done (      0.0 sec)
Final contraction and storage  ... done (      0.0 sec)

Time for X-Grid setup             =    0.356 sec
--------------
SCF ITERATIONS
--------------
ITER       Energy         Delta-E        Max-DP      RMS-DP      [F,P]     Damp
               ***  Starting incremental Fock matrix formation  ***
  0   -483.1334489108   0.000000000000 0.04366243  0.00090039  0.1736657 0.7000
  1   -483.3025684795  -0.169119568727 0.04885873  0.00069759  0.0835775 0.7000
                               ***Turning on DIIS***
  2   -483.3711521119  -0.068583632413 0.07842026  0.00118827  0.0334888 0.0000
  3   -483.4692938378  -0.098141725909 0.05132712  0.00053930  0.0450182 0.0000
  4   -483.4972933859  -0.027999548109 0.02272613  0.00020470  0.0097233 0.0000
  5   -483.4982520288  -0.000958642896 0.00743883  0.00008488  0.0155939 0.0000
  6   -483.4986386178  -0.000386588970 0.00468181  0.00004232  0.0010619 0.0000
  7   -483.4986581614  -0.000019543570 0.00384326  0.00003627  0.0007100 0.0000
               *** Restarting incremental Fock matrix formation ***
                                   *** Resetting DIIS ***
  8   -483.4986481737   0.000009987643 0.00070211  0.00000953  0.0007214 0.0000
  9   -483.4986481685   0.000000005202 0.00047032  0.00000404  0.0008641 0.0000
 10   -483.4986499590  -0.000001790531 0.00012673  0.00000171  0.0003868 0.0000
                 **** Energy Check signals convergence ****

               *****************************************************
               *                     SUCCESS                       *
               *           SCF CONVERGED AFTER  11 CYCLES          *
               *****************************************************

Setting up the final grid:

General Integration Accuracy     IntAcc      ...  4.670
Radial Grid Type                 RadialGrid  ... Gauss-Chebyshev
Angular Grid (max. acc.)         AngularGrid ... Lebedev-302
Angular grid pruning method      GridPruning ... 3 (G Style)
Weight generation scheme         WeightScheme... Becke
Basis function cutoff            BFCut       ...    1.0000e-10
Integration weight cutoff        WCut        ...    1.0000e-14
Grids for H and He will be reduced by one unit

# of grid points (after initial pruning)     ... 129424 (   0.0 sec)
# of grid points (after weights+screening)   ... 112336 (   0.1 sec)
nearest neighbour list constructed           ...    0.0 sec
Grid point re-assignment to atoms done       ...    0.0 sec
Grid point division into batches done        ...    0.4 sec
Reduced shell lists constructed in    0.5 sec

Total number of grid points                  ...   112336
Total number of batches                      ...     1776
Average number of points per batch           ...       63
Average number of grid points per atom       ...     3874
Average number of shells per batch           ...   110.88 (58.67%)
Average number of basis functions per batch  ...   213.14 (68.10%)
Average number of large shells per batch     ...    86.59 (78.10%)
Average number of large basis fcns per batch ...   165.18 (77.50%)
Maximum spatial batch extension              ...   2.73,  2.31,  2.55 au
Average spatial batch extension              ...   0.13,  0.12,  0.12 au

Final grid set up in    0.7 sec
Final integration                            ... done (   0.6 sec)
Change in XC energy                          ...     0.001184536
Integrated number of electrons               ...    87.000480242
Previous integrated no of electrons          ...    87.009646802
Old exchange energy                            =    -13.580455123 Eh
New exchange energy                            =    -13.579923190 Eh
Exchange energy change after final integration =      0.000531933 Eh
Total energy after final integration           =   -483.496933640 Eh
Final COS-X integration done in                =     2.981 sec

----------------
TOTAL SCF ENERGY
----------------

Total Energy       :         -483.49693364 Eh          -13156.62043 eV

Components:
Nuclear Repulsion  :          715.09051260 Eh           19458.60210 eV
Electronic Energy  :        -1198.58744624 Eh          -32615.22254 eV
One Electron Energy:        -2073.42793419 Eh          -56420.84247 eV
Two Electron Energy:          874.84048795 Eh           23805.61993 eV

Virial components:
Potential Energy   :         -963.79282469 Eh          -26226.13607 eV
Kinetic Energy     :          480.29589104 Eh           13069.51564 eV
Virial Ratio       :            2.00666473


DFT components:
N(Alpha)           :       44.000243670068 electrons
N(Beta)            :       43.000236571635 electrons
N(Total)           :       87.000480241703 electrons
E(X)               :      -53.855944445651 Eh       
E(C)               :       -3.385068211151 Eh       
E(XC)              :      -57.241012656802 Eh       
DFET-embed. en.    :        0.000000000000 Eh       

---------------
SCF CONVERGENCE
---------------

  Last Energy change         ...   -1.5006e-07  Tolerance :   1.0000e-06
  Last MAX-Density change    ...    0.0000e+00  Tolerance :   1.0000e-05
  Last RMS-Density change    ...    0.0000e+00  Tolerance :   1.0000e-06
  Last DIIS Error            ...    1.2289e-04  Tolerance :   1.0000e-06

             **** THE GBW FILE WAS UPDATED (tempo_epr_NHC_2.gbw) ****
             **** DENSITY FILE WAS UPDATED (tempo_epr_NHC_2.scfp) ****
             **** ENERGY FILE WAS UPDATED (tempo_epr_NHC_2.en.tmp) ****
----------------------
UHF SPIN CONTAMINATION
----------------------

Warning: in a DFT calculation there is little theoretical justification to 
         calculate <S**2> as in Hartree-Fock theory. We will do it anyways
         but you should keep in mind that the values have only limited relevance

Expectation value of <S**2>     :     0.754262
Ideal value S*(S+1) for S=0.5   :     0.750000
Deviation                       :     0.004262

             **** THE GBW FILE WAS UPDATED (tempo_epr_NHC_2.gbw) ****
             **** DENSITY FILE WAS UPDATED (tempo_epr_NHC_2.scfp) ****
----------------
ORBITAL ENERGIES
----------------
                 SPIN UP ORBITALS
  NO   OCC          E(Eh)            E(eV) 
   0   1.0000     -19.129595      -520.5427 
   1   1.0000     -14.406926      -392.0324 
   2   1.0000     -10.233126      -278.4575 
   3   1.0000     -10.233085      -278.4564 
   4   1.0000     -10.187966      -277.2286 
   5   1.0000     -10.186685      -277.1938 
   6   1.0000     -10.186578      -277.1909 
   7   1.0000     -10.173014      -276.8218 
   8   1.0000     -10.172737      -276.8143 
   9   1.0000     -10.167157      -276.6624 
  10   1.0000     -10.166975      -276.6575 
  11   1.0000      -1.085262       -29.5315 
  12   1.0000      -0.862497       -23.4697 
  13   1.0000      -0.815993       -22.2043 
  14   1.0000      -0.767868       -20.8947 
  15   1.0000      -0.713349       -19.4112 
  16   1.0000      -0.692135       -18.8339 
  17   1.0000      -0.684792       -18.6341 
  18   1.0000      -0.680259       -18.5108 
  19   1.0000      -0.603531       -16.4229 
  20   1.0000      -0.592389       -16.1197 
  21   1.0000      -0.515429       -14.0255 
  22   1.0000      -0.482958       -13.1420 
  23   1.0000      -0.479378       -13.0445 
  24   1.0000      -0.466985       -12.7073 
  25   1.0000      -0.459588       -12.5060 
  26   1.0000      -0.440377       -11.9833 
  27   1.0000      -0.425803       -11.5867 
  28   1.0000      -0.423814       -11.5326 
  29   1.0000      -0.404673       -11.0117 
  30   1.0000      -0.401428       -10.9234 
  31   1.0000      -0.387643       -10.5483 
  32   1.0000      -0.387503       -10.5445 
  33   1.0000      -0.370506       -10.0820 
  34   1.0000      -0.367314        -9.9951 
  35   1.0000      -0.365633        -9.9494 
  36   1.0000      -0.351757        -9.5718 
  37   1.0000      -0.351219        -9.5572 
  38   1.0000      -0.332656        -9.0520 
  39   1.0000      -0.325558        -8.8589 
  40   1.0000      -0.321455        -8.7472 
  41   1.0000      -0.310827        -8.4580 
  42   1.0000      -0.246791        -6.7155 
  43   1.0000      -0.185263        -5.0413 
  44   0.0000       0.008241         0.2242 
  45   0.0000       0.026330         0.7165 
  46   0.0000       0.033913         0.9228 
  47   0.0000       0.038549         1.0490 
  48   0.0000       0.061784         1.6812 
  49   0.0000       0.064842         1.7644 
  50   0.0000       0.070819         1.9271 
  51   0.0000       0.097045         2.6407 
  52   0.0000       0.113195         3.0802 
  53   0.0000       0.125146         3.4054 
  54   0.0000       0.137931         3.7533 
  55   0.0000       0.142717         3.8835 
  56   0.0000       0.159285         4.3344 
  57   0.0000       0.168395         4.5823 
  58   0.0000       0.174808         4.7568 
  59   0.0000       0.175721         4.7816 
  60   0.0000       0.182339         4.9617 
  61   0.0000       0.184831         5.0295 
  62   0.0000       0.186012         5.0616 
  63   0.0000       0.201367         5.4795 
  64   0.0000       0.213171         5.8007 
  65   0.0000       0.218436         5.9440 
  66   0.0000       0.218509         5.9459 
  67   0.0000       0.226880         6.1737 
  68   0.0000       0.236449         6.4341 
  69   0.0000       0.245322         6.6755 
  70   0.0000       0.245875         6.6906 
  71   0.0000       0.250724         6.8225 
  72   0.0000       0.255521         6.9531 
  73   0.0000       0.263028         7.1574 
  74   0.0000       0.266998         7.2654 
  75   0.0000       0.275958         7.5092 
  76   0.0000       0.281759         7.6671 
  77   0.0000       0.282691         7.6924 
  78   0.0000       0.305450         8.3117 
  79   0.0000       0.311062         8.4644 
  80   0.0000       0.321202         8.7404 
  81   0.0000       0.323385         8.7997 
  82   0.0000       0.330858         9.0031 
  83   0.0000       0.331413         9.0182 
  84   0.0000       0.342656         9.3241 
  85   0.0000       0.356135         9.6909 
  86   0.0000       0.370230        10.0745 
  87   0.0000       0.370443        10.0803 
  88   0.0000       0.394843        10.7442 
  89   0.0000       0.402166        10.9435 
  90   0.0000       0.404449        11.0056 
  91   0.0000       0.415866        11.3163 
  92   0.0000       0.421300        11.4641 
  93   0.0000       0.437859        11.9147 
  94   0.0000       0.453555        12.3419 
  95   0.0000       0.455975        12.4077 
  96   0.0000       0.475898        12.9499 
  97   0.0000       0.478921        13.0321 
  98   0.0000       0.489850        13.3295 
  99   0.0000       0.498114        13.5544 
 100   0.0000       0.522003        14.2044 
 101   0.0000       0.524564        14.2741 
 102   0.0000       0.532972        14.5029 
 103   0.0000       0.540137        14.6979 
 104   0.0000       0.549850        14.9622 
 105   0.0000       0.564886        15.3713 
 106   0.0000       0.586590        15.9619 
 107   0.0000       0.593192        16.1416 
 108   0.0000       0.603541        16.4232 
 109   0.0000       0.653608        17.7856 
 110   0.0000       0.719814        19.5871 
 111   0.0000       0.737853        20.0780 
 112   0.0000       0.742199        20.1963 
 113   0.0000       0.775760        21.1095 
 114   0.0000       0.777234        21.1496 
 115   0.0000       0.825483        22.4625 
 116   0.0000       0.830622        22.6024 
 117   0.0000       0.846791        23.0423 
 118   0.0000       0.847677        23.0665 
 119   0.0000       0.852883        23.2081 
 120   0.0000       0.863395        23.4942 
 121   0.0000       0.864157        23.5149 
 122   0.0000       0.874187        23.7878 
 123   0.0000       0.887484        24.1497 
 124   0.0000       0.909928        24.7604 
 125   0.0000       0.910795        24.7840 
 126   0.0000       0.911888        24.8137 
 127   0.0000       0.924594        25.1595 
 128   0.0000       0.936215        25.4757 
 129   0.0000       0.941079        25.6080 
 130   0.0000       0.946264        25.7491 
 131   0.0000       0.962225        26.1835 
 132   0.0000       0.970125        26.3985 
 133   0.0000       0.982989        26.7485 
 134   0.0000       0.989683        26.9306 
 135   0.0000       0.992326        27.0026 
 136   0.0000       1.000420        27.2228 
 137   0.0000       1.025554        27.9067 
 138   0.0000       1.030949        28.0535 
 139   0.0000       1.063115        28.9288 
 140   0.0000       1.072610        29.1872 
 141   0.0000       1.089625        29.6502 
 142   0.0000       1.115906        30.3654 
 143   0.0000       1.130529        30.7633 
 144   0.0000       1.140073        31.0230 
 145   0.0000       1.161375        31.6026 
 146   0.0000       1.179379        32.0925 
 147   0.0000       1.197234        32.5784 
 148   0.0000       1.205861        32.8132 
 149   0.0000       1.212048        32.9815 
 150   0.0000       1.230018        33.4705 
 151   0.0000       1.238736        33.7077 
 152   0.0000       1.251551        34.0564 
 153   0.0000       1.276228        34.7279 
 154   0.0000       1.289467        35.0882 
 155   0.0000       1.295932        35.2641 
 156   0.0000       1.300956        35.4008 
 157   0.0000       1.348177        36.6858 
 158   0.0000       1.359112        36.9833 
 159   0.0000       1.402081        38.1526 
 160   0.0000       1.411832        38.4179 
 161   0.0000       1.432317        38.9753 
 162   0.0000       1.437717        39.1223 
 163   0.0000       1.437903        39.1273 
 164   0.0000       1.447501        39.3885 
 165   0.0000       1.454036        39.5663 
 166   0.0000       1.467824        39.9415 
 167   0.0000       1.475531        40.1513 
 168   0.0000       1.486506        40.4499 
 169   0.0000       1.489314        40.5263 
 170   0.0000       1.515560        41.2405 
 171   0.0000       1.524575        41.4858 
 172   0.0000       1.528609        41.5956 
 173   0.0000       1.560671        42.4680 
 174   0.0000       1.589283        43.2466 
 175   0.0000       1.593715        43.3672 
 176   0.0000       1.594619        43.3918 
 177   0.0000       1.622909        44.1616 
 178   0.0000       1.633423        44.4477 
 179   0.0000       1.637005        44.5452 
 180   0.0000       1.658295        45.1245 
 181   0.0000       1.661873        45.2219 
 182   0.0000       1.669170        45.4204 
 183   0.0000       1.675202        45.5846 
 184   0.0000       1.702614        46.3305 
 185   0.0000       1.706799        46.4444 
 186   0.0000       1.720658        46.8215 
 187   0.0000       1.734098        47.1872 
 188   0.0000       1.739961        47.3468 
 189   0.0000       1.744616        47.4734 
 190   0.0000       1.747290        47.5462 
 191   0.0000       1.780675        48.4546 
 192   0.0000       1.802740        49.0551 
 193   0.0000       1.848422        50.2981 
 194   0.0000       1.853414        50.4340 
 195   0.0000       1.881338        51.1938 
 196   0.0000       1.886601        51.3370 
 197   0.0000       1.897042        51.6211 
 198   0.0000       1.906687        51.8836 
 199   0.0000       1.915775        52.1309 
 200   0.0000       1.928641        52.4810 
 201   0.0000       1.939509        52.7767 
 202   0.0000       1.968490        53.5653 
 203   0.0000       1.975884        53.7665 
 204   0.0000       1.982295        53.9410 
 205   0.0000       1.989573        54.1390 
 206   0.0000       2.010363        54.7048 
 207   0.0000       2.015117        54.8341 
 208   0.0000       2.028157        55.1890 
 209   0.0000       2.052353        55.8474 
 210   0.0000       2.078940        56.5708 
 211   0.0000       2.089062        56.8463 
 212   0.0000       2.105466        57.2926 
 213   0.0000       2.120357        57.6978 
 214   0.0000       2.161404        58.8148 
 215   0.0000       2.184585        59.4456 
 216   0.0000       2.185609        59.4734 
 217   0.0000       2.203478        59.9597 
 218   0.0000       2.233717        60.7825 
 219   0.0000       2.241042        60.9819 
 220   0.0000       2.281319        62.0779 
 221   0.0000       2.316037        63.0226 
 222   0.0000       2.335155        63.5428 
 223   0.0000       2.346083        63.8402 
 224   0.0000       2.372432        64.5571 
 225   0.0000       2.382309        64.8259 
 226   0.0000       2.400472        65.3202 
 227   0.0000       2.412869        65.6575 
 228   0.0000       2.432659        66.1960 
 229   0.0000       2.434549        66.2475 
 230   0.0000       2.446587        66.5750 
 231   0.0000       2.456150        66.8352 
 232   0.0000       2.460977        66.9666 
 233   0.0000       2.469523        67.1991 
 234   0.0000       2.474712        67.3403 
 235   0.0000       2.485833        67.6430 
 236   0.0000       2.504847        68.1604 
 237   0.0000       2.523246        68.6610 
 238   0.0000       2.525903        68.7333 
 239   0.0000       2.538173        69.0672 
 240   0.0000       2.548869        69.3582 
 241   0.0000       2.554851        69.5210 
 242   0.0000       2.559795        69.6556 
 243   0.0000       2.577810        70.1458 
 244   0.0000       2.582381        70.2702 
 245   0.0000       2.607551        70.9551 
 246   0.0000       2.624010        71.4029 
 247   0.0000       2.661750        72.4299 
 248   0.0000       2.683742        73.0283 
 249   0.0000       2.712693        73.8161 
 250   0.0000       2.757811        75.0439 
 251   0.0000       2.833268        77.0971 
 252   0.0000       3.079617        83.8006 
 253   0.0000       3.265950        88.8710 
 254   0.0000       3.495083        95.1060 
 255   0.0000       5.006594       136.2363 
 256   0.0000       5.025022       136.7378 
 257   0.0000       5.027607       136.8081 
 258   0.0000       5.032356       136.9374 
 259   0.0000       5.042190       137.2050 
 260   0.0000       5.047801       137.3577 
 261   0.0000       5.051493       137.4581 
 262   0.0000       5.053855       137.5224 
 263   0.0000       5.057380       137.6183 
 264   0.0000       5.097337       138.7056 
 265   0.0000       5.110604       139.0666 
 266   0.0000       5.169942       140.6813 
 267   0.0000       5.252892       142.9385 
 268   0.0000       5.294943       144.0827 
 269   0.0000       5.322433       144.8308 
 270   0.0000       5.367640       146.0609 
 271   0.0000       5.414784       147.3438 
 272   0.0000       5.445090       148.1684 
 273   0.0000       5.448944       148.2733 
 274   0.0000       5.505743       149.8189 
 275   0.0000       5.518222       150.1585 
 276   0.0000       5.642836       153.5494 
 277   0.0000       5.659000       153.9892 
 278   0.0000       5.726366       155.8223 
 279   0.0000       5.757684       156.6745 
 280   0.0000       5.867586       159.6651 
 281   0.0000       5.886154       160.1704 
 282   0.0000       7.271586       197.8699 
 283   0.0000       9.046072       246.1561 
 284   0.0000      29.703278       808.2673 
 285   0.0000      29.798337       810.8540 
 286   0.0000      29.957895       815.1958 
 287   0.0000      30.069489       818.2324 
 288   0.0000      30.094703       818.9185 
 289   0.0000      30.160873       820.7191 
 290   0.0000      30.173146       821.0530 
 291   0.0000      30.279692       823.9523 
 292   0.0000      30.280577       823.9764 
 293   0.0000      36.628201       996.7040 
 294   0.0000      36.630144       996.7569 
 295   0.0000      36.649027       997.2707 
 296   0.0000      36.655032       997.4341 
 297   0.0000      36.660683       997.5879 
 298   0.0000      36.666481       997.7457 
 299   0.0000      36.667443       997.7719 
 300   0.0000      36.671757       997.8892 
 301   0.0000      36.682405       998.1790 
 302   0.0000      36.699898       998.6550 
 303   0.0000      36.719661       999.1928 
 304   0.0000      36.857914      1002.9548 
 305   0.0000      36.907748      1004.3109 
 306   0.0000      36.926007      1004.8077 
 307   0.0000      36.978835      1006.2453 
 308   0.0000      36.991968      1006.6026 
 309   0.0000      37.005313      1006.9658 
 310   0.0000      37.008739      1007.0590 
 311   0.0000      41.193513      1120.9325 
 312   0.0000      53.573021      1457.7960 

                 SPIN DOWN ORBITALS
  NO   OCC          E(Eh)            E(eV) 
   0   1.0000     -19.115831      -520.1682 
   1   1.0000     -14.395896      -391.7322 
   2   1.0000     -10.233502      -278.4678 
   3   1.0000     -10.233461      -278.4666 
   4   1.0000     -10.187980      -277.2290 
   5   1.0000     -10.186653      -277.1929 
   6   1.0000     -10.186547      -277.1900 
   7   1.0000     -10.172466      -276.8069 
   8   1.0000     -10.172189      -276.7993 
   9   1.0000     -10.166951      -276.6568 
  10   1.0000     -10.166768      -276.6518 
  11   1.0000      -1.060413       -28.8553 
  12   1.0000      -0.854492       -23.2519 
  13   1.0000      -0.814942       -22.1757 
  14   1.0000      -0.762763       -20.7558 
  15   1.0000      -0.699032       -19.0216 
  16   1.0000      -0.690552       -18.7909 
  17   1.0000      -0.683869       -18.6090 
  18   1.0000      -0.680003       -18.5038 
  19   1.0000      -0.601398       -16.3649 
  20   1.0000      -0.589328       -16.0364 
  21   1.0000      -0.509719       -13.8702 
  22   1.0000      -0.477377       -12.9901 
  23   1.0000      -0.477012       -12.9802 
  24   1.0000      -0.460417       -12.5286 
  25   1.0000      -0.439917       -11.9708 
  26   1.0000      -0.438481       -11.9317 
  27   1.0000      -0.425395       -11.5756 
  28   1.0000      -0.419573       -11.4172 
  29   1.0000      -0.399782       -10.8786 
  30   1.0000      -0.396523       -10.7899 
  31   1.0000      -0.386681       -10.5221 
  32   1.0000      -0.384685       -10.4678 
  33   1.0000      -0.365890        -9.9564 
  34   1.0000      -0.364537        -9.9196 
  35   1.0000      -0.362040        -9.8516 
  36   1.0000      -0.351500        -9.5648 
  37   1.0000      -0.335548        -9.1307 
  38   1.0000      -0.331430        -9.0187 
  39   1.0000      -0.324496        -8.8300 
  40   1.0000      -0.309934        -8.4337 
  41   1.0000      -0.296035        -8.0555 
  42   1.0000      -0.234631        -6.3846 
  43   0.0000      -0.044016        -1.1977 
  44   0.0000       0.008464         0.2303 
  45   0.0000       0.026418         0.7189 
  46   0.0000       0.034212         0.9310 
  47   0.0000       0.039007         1.0614 
  48   0.0000       0.061883         1.6839 
  49   0.0000       0.064903         1.7661 
  50   0.0000       0.071192         1.9372 
  51   0.0000       0.099438         2.7058 
  52   0.0000       0.117633         3.2010 
  53   0.0000       0.125471         3.4142 
  54   0.0000       0.140331         3.8186 
  55   0.0000       0.144047         3.9197 
  56   0.0000       0.161596         4.3973 
  57   0.0000       0.169343         4.6081 
  58   0.0000       0.176037         4.7902 
  59   0.0000       0.176631         4.8064 
  60   0.0000       0.184669         5.0251 
  61   0.0000       0.185178         5.0390 
  62   0.0000       0.187075         5.0906 
  63   0.0000       0.201599         5.4858 
  64   0.0000       0.215787         5.8719 
  65   0.0000       0.219377         5.9696 
  66   0.0000       0.221335         6.0228 
  67   0.0000       0.227634         6.1942 
  68   0.0000       0.237452         6.4614 
  69   0.0000       0.245465         6.6794 
  70   0.0000       0.249400         6.7865 
  71   0.0000       0.251096         6.8327 
  72   0.0000       0.258699         7.0396 
  73   0.0000       0.264468         7.1966 
  74   0.0000       0.267838         7.2882 
  75   0.0000       0.277809         7.5596 
  76   0.0000       0.283600         7.7172 
  77   0.0000       0.284315         7.7366 
  78   0.0000       0.305651         8.3172 
  79   0.0000       0.312369         8.5000 
  80   0.0000       0.323660         8.8072 
  81   0.0000       0.324136         8.8202 
  82   0.0000       0.331284         9.0147 
  83   0.0000       0.334660         9.1066 
  84   0.0000       0.344342         9.3700 
  85   0.0000       0.356842         9.7102 
  86   0.0000       0.370707        10.0874 
  87   0.0000       0.374668        10.1952 
  88   0.0000       0.396980        10.8024 
  89   0.0000       0.403579        10.9819 
  90   0.0000       0.404968        11.0197 
  91   0.0000       0.416224        11.3260 
  92   0.0000       0.422700        11.5023 
  93   0.0000       0.438253        11.9255 
  94   0.0000       0.456153        12.4125 
  95   0.0000       0.457585        12.4515 
  96   0.0000       0.477135        12.9835 
  97   0.0000       0.480228        13.0677 
  98   0.0000       0.491752        13.3812 
  99   0.0000       0.498776        13.5724 
 100   0.0000       0.522803        14.2262 
 101   0.0000       0.525896        14.3104 
 102   0.0000       0.533647        14.5213 
 103   0.0000       0.541849        14.7444 
 104   0.0000       0.550051        14.9676 
 105   0.0000       0.565235        15.3808 
 106   0.0000       0.586541        15.9606 
 107   0.0000       0.594752        16.1840 
 108   0.0000       0.603982        16.4352 
 109   0.0000       0.655030        17.8243 
 110   0.0000       0.721575        19.6351 
 111   0.0000       0.744556        20.2604 
 112   0.0000       0.756453        20.5841 
 113   0.0000       0.777659        21.1612 
 114   0.0000       0.794187        21.6109 
 115   0.0000       0.831539        22.6273 
 116   0.0000       0.834794        22.7159 
 117   0.0000       0.846989        23.0477 
 118   0.0000       0.848146        23.0792 
 119   0.0000       0.853699        23.2303 
 120   0.0000       0.864270        23.5180 
 121   0.0000       0.864792        23.5322 
 122   0.0000       0.874858        23.8061 
 123   0.0000       0.887740        24.1566 
 124   0.0000       0.912102        24.8196 
 125   0.0000       0.912438        24.8287 
 126   0.0000       0.914368        24.8812 
 127   0.0000       0.925683        25.1891 
 128   0.0000       0.936733        25.4898 
 129   0.0000       0.942580        25.6489 
 130   0.0000       0.948033        25.7973 
 131   0.0000       0.963022        26.2052 
 132   0.0000       0.971690        26.4410 
 133   0.0000       0.984451        26.7883 
 134   0.0000       0.989880        26.9360 
 135   0.0000       0.997380        27.1401 
 136   0.0000       1.000667        27.2295 
 137   0.0000       1.029887        28.0246 
 138   0.0000       1.031283        28.0626 
 139   0.0000       1.065199        28.9855 
 140   0.0000       1.073556        29.2130 
 141   0.0000       1.094047        29.7705 
 142   0.0000       1.118233        30.4287 
 143   0.0000       1.131085        30.7784 
 144   0.0000       1.140853        31.0442 
 145   0.0000       1.162835        31.6424 
 146   0.0000       1.180361        32.1192 
 147   0.0000       1.198888        32.6234 
 148   0.0000       1.209095        32.9011 
 149   0.0000       1.213120        33.0107 
 150   0.0000       1.230817        33.4922 
 151   0.0000       1.239234        33.7213 
 152   0.0000       1.253890        34.1201 
 153   0.0000       1.277403        34.7599 
 154   0.0000       1.291260        35.1370 
 155   0.0000       1.300089        35.3772 
 156   0.0000       1.301368        35.4120 
 157   0.0000       1.349075        36.7102 
 158   0.0000       1.361131        37.0382 
 159   0.0000       1.402762        38.1711 
 160   0.0000       1.414107        38.4798 
 161   0.0000       1.432807        38.9886 
 162   0.0000       1.437866        39.1263 
 163   0.0000       1.438509        39.1438 
 164   0.0000       1.448686        39.4207 
 165   0.0000       1.454259        39.5724 
 166   0.0000       1.468317        39.9549 
 167   0.0000       1.475709        40.1561 
 168   0.0000       1.486986        40.4630 
 169   0.0000       1.490355        40.5546 
 170   0.0000       1.516300        41.2606 
 171   0.0000       1.524898        41.4946 
 172   0.0000       1.530210        41.6391 
 173   0.0000       1.561457        42.4894 
 174   0.0000       1.589719        43.2585 
 175   0.0000       1.594682        43.3935 
 176   0.0000       1.595324        43.4110 
 177   0.0000       1.625396        44.2293 
 178   0.0000       1.633641        44.4536 
 179   0.0000       1.639065        44.6012 
 180   0.0000       1.663191        45.2577 
 181   0.0000       1.663947        45.2783 
 182   0.0000       1.671510        45.4841 
 183   0.0000       1.677890        45.6577 
 184   0.0000       1.704696        46.3871 
 185   0.0000       1.707039        46.4509 
 186   0.0000       1.721053        46.8322 
 187   0.0000       1.735125        47.2151 
 188   0.0000       1.740849        47.3709 
 189   0.0000       1.745086        47.4862 
 190   0.0000       1.748760        47.5862 
 191   0.0000       1.781869        48.4871 
 192   0.0000       1.804827        49.1118 
 193   0.0000       1.853743        50.4429 
 194   0.0000       1.854739        50.4700 
 195   0.0000       1.885626        51.3105 
 196   0.0000       1.886925        51.3458 
 197   0.0000       1.899146        51.6784 
 198   0.0000       1.913384        52.0658 
 199   0.0000       1.917567        52.1797 
 200   0.0000       1.931713        52.5646 
 201   0.0000       1.941889        52.8415 
 202   0.0000       1.972727        53.6806 
 203   0.0000       1.978842        53.8470 
 204   0.0000       1.984461        53.9999 
 205   0.0000       1.989833        54.1461 
 206   0.0000       2.012339        54.7585 
 207   0.0000       2.015390        54.8416 
 208   0.0000       2.030386        55.2496 
 209   0.0000       2.053739        55.8851 
 210   0.0000       2.080447        56.6119 
 211   0.0000       2.090921        56.8968 
 212   0.0000       2.108071        57.3635 
 213   0.0000       2.120934        57.7136 
 214   0.0000       2.161601        58.8202 
 215   0.0000       2.186985        59.5109 
 216   0.0000       2.187402        59.5222 
 217   0.0000       2.205132        60.0047 
 218   0.0000       2.238894        60.9234 
 219   0.0000       2.241939        61.0063 
 220   0.0000       2.288819        62.2819 
 221   0.0000       2.320178        63.1353 
 222   0.0000       2.340424        63.6862 
 223   0.0000       2.346633        63.8551 
 224   0.0000       2.376111        64.6573 
 225   0.0000       2.382623        64.8345 
 226   0.0000       2.400937        65.3328 
 227   0.0000       2.413915        65.6860 
 228   0.0000       2.434862        66.2560 
 229   0.0000       2.436819        66.3092 
 230   0.0000       2.447101        66.5890 
 231   0.0000       2.456552        66.8462 
 232   0.0000       2.463657        67.0395 
 233   0.0000       2.472300        67.2747 
 234   0.0000       2.475406        67.3592 
 235   0.0000       2.488368        67.7119 
 236   0.0000       2.505483        68.1777 
 237   0.0000       2.524445        68.6936 
 238   0.0000       2.526635        68.7532 
 239   0.0000       2.540895        69.1413 
 240   0.0000       2.549223        69.3679 
 241   0.0000       2.555501        69.5387 
 242   0.0000       2.562744        69.7358 
 243   0.0000       2.579772        70.1992 
 244   0.0000       2.583054        70.2885 
 245   0.0000       2.608931        70.9926 
 246   0.0000       2.624358        71.4124 
 247   0.0000       2.667480        72.5858 
 248   0.0000       2.699576        73.4592 
 249   0.0000       2.738523        74.5190 
 250   0.0000       2.783370        75.7393 
 251   0.0000       2.850142        77.5563 
 252   0.0000       3.120532        84.9140 
 253   0.0000       3.273066        89.0647 
 254   0.0000       3.512258        95.5734 
 255   0.0000       5.006545       136.2350 
 256   0.0000       5.024987       136.7368 
 257   0.0000       5.027657       136.8095 
 258   0.0000       5.032536       136.9423 
 259   0.0000       5.042071       137.2017 
 260   0.0000       5.047736       137.3559 
 261   0.0000       5.051589       137.4607 
 262   0.0000       5.053760       137.5198 
 263   0.0000       5.057398       137.6188 
 264   0.0000       5.097362       138.7063 
 265   0.0000       5.110496       139.0637 
 266   0.0000       5.170312       140.6914 
 267   0.0000       5.253122       142.9447 
 268   0.0000       5.294971       144.0835 
 269   0.0000       5.322451       144.8312 
 270   0.0000       5.367556       146.0586 
 271   0.0000       5.414864       147.3459 
 272   0.0000       5.445230       148.1722 
 273   0.0000       5.448919       148.2726 
 274   0.0000       5.505829       149.8212 
 275   0.0000       5.518488       150.1657 
 276   0.0000       5.643660       153.5718 
 277   0.0000       5.659704       154.0084 
 278   0.0000       5.726829       155.8349 
 279   0.0000       5.758036       156.6841 
 280   0.0000       5.867560       159.6644 
 281   0.0000       5.886202       160.1717 
 282   0.0000       7.295541       198.5218 
 283   0.0000       9.076954       246.9965 
 284   0.0000      29.703233       808.2661 
 285   0.0000      29.798404       810.8558 
 286   0.0000      29.958079       815.2008 
 287   0.0000      30.069973       818.2456 
 288   0.0000      30.095114       818.9297 
 289   0.0000      30.160894       820.7197 
 290   0.0000      30.173517       821.0631 
 291   0.0000      30.279682       823.9520 
 292   0.0000      30.280359       823.9705 
 293   0.0000      36.628155       996.7028 
 294   0.0000      36.630180       996.7579 
 295   0.0000      36.648903       997.2674 
 296   0.0000      36.655001       997.4333 
 297   0.0000      36.660648       997.5870 
 298   0.0000      36.666337       997.7418 
 299   0.0000      36.667296       997.7678 
 300   0.0000      36.671566       997.8840 
 301   0.0000      36.682313       998.1765 
 302   0.0000      36.699856       998.6538 
 303   0.0000      36.719405       999.1858 
 304   0.0000      36.857889      1002.9541 
 305   0.0000      36.907631      1004.3077 
 306   0.0000      36.925828      1004.8029 
 307   0.0000      36.978633      1006.2398 
 308   0.0000      36.991971      1006.6027 
 309   0.0000      37.005113      1006.9603 
 310   0.0000      37.008761      1007.0596 
 311   0.0000      41.207563      1121.3148 
 312   0.0000      53.589156      1458.2351 

                    ********************************
                    * MULLIKEN POPULATION ANALYSIS *
                    ********************************

--------------------------------------------
MULLIKEN ATOMIC CHARGES AND SPIN POPULATIONS
--------------------------------------------
   0 C :   -0.270189    0.002637
   1 C :   -0.271705    0.002584
   2 C :   -0.356096   -0.003148
   3 C :    0.362122   -0.006089
   4 C :    0.362556   -0.006435
   5 H :    0.132677   -0.000165
   6 H :    0.132588   -0.000137
   7 H :    0.156110    0.000147
   8 H :    0.118856   -0.000729
   9 H :    0.118586   -0.000708
  10 H :    0.131013    0.000233
  11 N :    0.051682    0.455256
  12 O :   -0.390191    0.503511
  13 C :   -0.545870    0.000751
  14 H :    0.152571    0.000314
  15 H :    0.177264   -0.000435
  16 H :    0.136459   -0.001556
  17 C :   -0.510230    0.027312
  18 H :    0.172015   -0.001006
  19 H :    0.137076   -0.000709
  20 H :    0.143428    0.001782
  21 C :   -0.513035    0.027332
  22 H :    0.143358    0.001835
  23 H :    0.136365   -0.000742
  24 H :    0.173397   -0.000982
  25 C :   -0.543897    0.000829
  26 H :    0.151267    0.000320
  27 H :    0.135359   -0.001560
  28 H :    0.176461   -0.000441
Sum of atomic charges         :   -0.0000000
Sum of atomic spin populations:    1.0000000

-----------------------------------------------------
MULLIKEN REDUCED ORBITAL CHARGES AND SPIN POPULATIONS
-----------------------------------------------------
CHARGE
  0 C s       :     3.202157  s :     3.202157
      pz      :     0.933085  p :     2.989549
      px      :     0.994641
      py      :     1.061823
      dz2     :     0.018884  d :     0.078483
      dxz     :     0.015797
      dyz     :     0.011675
      dx2y2   :     0.015220
      dxy     :     0.016907
  1 C s       :     3.202298  s :     3.202298
      pz      :     0.932822  p :     2.990915
      px      :     1.076937
      py      :     0.981156
      dz2     :     0.018899  d :     0.078492
      dxz     :     0.012175
      dyz     :     0.015271
      dx2y2   :     0.013244
      dxy     :     0.018903
  2 C s       :     3.177456  s :     3.177456
      pz      :     1.097659  p :     3.098225
      px      :     1.006186
      py      :     0.994379
      dz2     :     0.024140  d :     0.080415
      dxz     :     0.009716
      dyz     :     0.009822
      dx2y2   :     0.015314
      dxy     :     0.021423
  3 C s       :     2.991086  s :     2.991086
      pz      :     0.877782  p :     2.533480
      px      :     0.795961
      py      :     0.859737
      dz2     :     0.025221  d :     0.113311
      dxz     :     0.020383
      dyz     :     0.017393
      dx2y2   :     0.025854
      dxy     :     0.024461
  4 C s       :     2.989699  s :     2.989699
      pz      :     0.878277  p :     2.534547
      px      :     0.871230
      py      :     0.785040
      dz2     :     0.025179  d :     0.113198
      dxz     :     0.017252
      dyz     :     0.020508
      dx2y2   :     0.026695
      dxy     :     0.023564
  5 H s       :     0.847277  s :     0.847277
      pz      :     0.005872  p :     0.020046
      px      :     0.007875
      py      :     0.006300
  6 H s       :     0.847409  s :     0.847409
      pz      :     0.005833  p :     0.020003
      px      :     0.006929
      py      :     0.007241
  7 H s       :     0.824267  s :     0.824267
      pz      :     0.005396  p :     0.019623
      px      :     0.007407
      py      :     0.006821
  8 H s       :     0.861417  s :     0.861417
      pz      :     0.005432  p :     0.019727
      px      :     0.004958
      py      :     0.009337
  9 H s       :     0.861677  s :     0.861677
      pz      :     0.005415  p :     0.019736
      px      :     0.008942
      py      :     0.005379
 10 H s       :     0.849863  s :     0.849863
      pz      :     0.010067  p :     0.019124
      px      :     0.004512
      py      :     0.004545
 11 N s       :     3.488617  s :     3.488617
      pz      :     0.960275  p :     3.382352
      px      :     1.231458
      py      :     1.190619
      dz2     :     0.020836  d :     0.077348
      dxz     :     0.019312
      dyz     :     0.020971
      dx2y2   :     0.009846
      dxy     :     0.006384
 12 O s       :     4.017284  s :     4.017284
      pz      :     1.086875  p :     4.353027
      px      :     1.605279
      py      :     1.660873
      dz2     :     0.009137  d :     0.019879
      dxz     :     0.005042
      dyz     :     0.004655
      dx2y2   :     0.000433
      dxy     :     0.000613
 13 C s       :     3.246261  s :     3.246261
      pz      :     1.140378  p :     3.231440
      px      :     1.111948
      py      :     0.979114
      dz2     :     0.019944  d :     0.068169
      dxz     :     0.009749
      dyz     :     0.009734
      dx2y2   :     0.012744
      dxy     :     0.015997
 14 H s       :     0.828124  s :     0.828124
      pz      :     0.005207  p :     0.019305
      px      :     0.008543
      py      :     0.005554
 15 H s       :     0.803123  s :     0.803123
      pz      :     0.010414  p :     0.019612
      px      :     0.004341
      py      :     0.004857
 16 H s       :     0.844355  s :     0.844355
      pz      :     0.005252  p :     0.019185
      px      :     0.007467
      py      :     0.006466
 17 C s       :     3.232948  s :     3.232948
      pz      :     1.111633  p :     3.209355
      px      :     1.015174
      py      :     1.082547
      dz2     :     0.023453  d :     0.067927
      dxz     :     0.008490
      dyz     :     0.005480
      dx2y2   :     0.014096
      dxy     :     0.016408
 18 H s       :     0.808440  s :     0.808440
      pz      :     0.010219  p :     0.019546
      px      :     0.004799
      py      :     0.004528
 19 H s       :     0.843230  s :     0.843230
      pz      :     0.005157  p :     0.019693
      px      :     0.005236
      py      :     0.009300
 20 H s       :     0.837475  s :     0.837475
      pz      :     0.004767  p :     0.019097
      px      :     0.008360
      py      :     0.005971
 21 C s       :     3.233520  s :     3.233520
      pz      :     1.112818  p :     3.211590
      px      :     1.073162
      py      :     1.025610
      dz2     :     0.023482  d :     0.067925
      dxz     :     0.006015
      dyz     :     0.007930
      dx2y2   :     0.017000
      dxy     :     0.013498
 22 H s       :     0.837544  s :     0.837544
      pz      :     0.004771  p :     0.019099
      px      :     0.005435
      py      :     0.008892
 23 H s       :     0.843918  s :     0.843918
      pz      :     0.005135  p :     0.019717
      px      :     0.009599
      py      :     0.004984
 24 H s       :     0.807114  s :     0.807114
      pz      :     0.010189  p :     0.019489
      px      :     0.004538
      py      :     0.004761
 25 C s       :     3.247425  s :     3.247425
      pz      :     1.139938  p :     3.228361
      px      :     0.975384
      py      :     1.113039
      dz2     :     0.019905  d :     0.068111
      dxz     :     0.009662
      dyz     :     0.009842
      dx2y2   :     0.012929
      dxy     :     0.015773
 26 H s       :     0.829373  s :     0.829373
      pz      :     0.005208  p :     0.019360
      px      :     0.006093
      py      :     0.008060
 27 H s       :     0.845435  s :     0.845435
      pz      :     0.005284  p :     0.019206
      px      :     0.005920
      py      :     0.008002
 28 H s       :     0.803895  s :     0.803895
      pz      :     0.010441  p :     0.019644
      px      :     0.004830
      py      :     0.004373

SPIN
  0 C s       :     0.001567  s :     0.001567
      pz      :     0.000405  p :     0.001159
      px      :     0.000483
      py      :     0.000272
      dz2     :     0.000016  d :    -0.000089
      dxz     :    -0.000055
      dyz     :    -0.000143
      dx2y2   :     0.000076
      dxy     :     0.000017
  1 C s       :     0.001524  s :     0.001524
      pz      :     0.000403  p :     0.001150
      px      :     0.000037
      py      :     0.000710
      dz2     :     0.000016  d :    -0.000090
      dxz     :    -0.000136
      dyz     :    -0.000064
      dx2y2   :     0.000098
      dxy     :    -0.000003
  2 C s       :    -0.001936  s :    -0.001936
      pz      :    -0.000781  p :    -0.001328
      px      :    -0.000273
      py      :    -0.000274
      dz2     :     0.000101  d :     0.000115
      dxz     :     0.000002
      dyz     :     0.000001
      dx2y2   :     0.000001
      dxy     :     0.000010
  3 C s       :    -0.003095  s :    -0.003095
      pz      :    -0.004157  p :    -0.009393
      px      :    -0.004517
      py      :    -0.000719
      dz2     :     0.000145  d :     0.006398
      dxz     :     0.000374
      dyz     :     0.000349
      dx2y2   :     0.005028
      dxy     :     0.000502
  4 C s       :    -0.003443  s :    -0.003443
      pz      :    -0.004203  p :    -0.009398
      px      :     0.001620
      py      :    -0.006815
      dz2     :     0.000144  d :     0.006406
      dxz     :     0.000257
      dyz     :     0.000471
      dx2y2   :     0.003885
      dxy     :     0.001650
  5 H s       :    -0.000207  s :    -0.000207
      pz      :     0.000003  p :     0.000042
      px      :    -0.000003
      py      :     0.000042
  6 H s       :    -0.000180  s :    -0.000180
      pz      :     0.000004  p :     0.000043
      px      :     0.000043
      py      :    -0.000004
  7 H s       :     0.000155  s :     0.000155
      pz      :    -0.000003  p :    -0.000007
      px      :    -0.000002
      py      :    -0.000002
[...]

 A(FC)          -9.5417              -9.5417              -9.5417
 A(SD)           3.1039              -1.3969              -1.7070
 A(ORB+DIA)      0.0107               0.0273               0.0100    A(PC) =   0.0160
 A(ORB)          0.0113               0.0274               0.0100    A(PC) =   0.0162
 A(DIA)         -0.0006              -0.0001              -0.0000    A(PC) =  -0.0003
             ----------           ----------           ----------
 A(Tot)         -6.4271             -10.9114             -11.2387    A(iso)=   -9.5257
 Orientation: 
  X          -0.2154355           -0.1799917           -0.9597867
  Y          -0.9028849           -0.3377067            0.2659943
  Z          -0.3720032            0.9238816           -0.0897578

Notes:  (1) The A matrix conforms to the "SAI" spin Hamiltonian convention.
        (2) Tensor is right-handed.

 Raw EFG matrix (all values in a.u.**-3):
            -0.0839       0.1242       0.0702
             0.1242       0.1683       0.1051
             0.0702       0.1051      -0.0844

 V(El)       0.1162      -0.1423       0.0260
 V(Nuc)     -0.2241      -0.0134       0.2375
         ----------   ----------   ----------
 V(Tot)     -0.1079      -0.1556       0.2635 
 Orientation: 
  X      -0.5072607    0.7751539   -0.3765940
  Y       0.4963400   -0.0944551   -0.8629744
  Z      -0.7045092   -0.6246717   -0.3368265

Note: Tensor is right-handed

 RHO(0)=    119.456695357 a.u.**-3

 -----------------------------------------------------------
 Nucleus  13C : A:ISTP=   13 I=  0.5 P=134.1903 MHz/au**3
                Q:ISTP=   13 I=  0.5 Q=  0.0000 barn     
 -----------------------------------------------------------
 Solving for nuclear perturbation:
Forming RHS of the CP-SCF equations         ... 
Using LibInt in CPSCF-CP

Calculating nucleus orbit integrals         ... done

------------------------------------------------------------------------------
                           ORCA CP-SCF CALCULATION
------------------------------------------------------------------------------

Input orbitals are from        ... tempo_epr_NHC_2.gbw
Input Perturbation             ... tempo_epr_NHC_2.pin.tmp
Wavefunction output            ... tempo_epr_NHC_2.pout.tmp
Perturbation mode              ... Imaginary perturbation
Solver                         ... POPLE
Max. number of iterations      ... 64
Convergence tolerance          ... 1.000e-06
Integral handling              ... Direct
COSX GridX                     ... 1
Number of perturbations        ... 3
Number of operators            ... 2
Orbital ranges used for CP-SCF:
 Operator 0:  Orbitals   0... 43  to  44...312
 Operator 1:  Orbitals   0... 42  to  43...312
DFT calculation                         ... on
The RIJCOSX approximation is active
Variables per vector in CP-SCF ... 23446
Number of vectors sought       ... 3
     CP-SCF ITERATION   0: 
     CP-SCF ITERATION   1:      0.000112359120
     CP-SCF ITERATION   2:      0.000007858866
     CP-SCF ITERATION   3:      0.000000541551

Forming final perturbed densities           ... done
Transforming perturbed density to AO basis  ... done

Using FinalGrid as integration grid:         ... finished setting up the grid
Time for grid setup =    0.010 sec

 Raw HFC matrix (all values in MHz): 
 ------------------------------
                 6.7395               1.3662              -0.2420
                 1.3647               9.9183               0.3054
                -0.2548               0.3070               6.6126

 A(FC)           7.7557               7.7557               7.7557
 A(SD)          -1.7213              -0.9554               2.6766
 A(ORB+DIA)     -0.0024               0.0031               0.0026    A(PC) =   0.0011
 A(ORB)         -0.0024               0.0031               0.0029    A(PC) =   0.0012
 A(DIA)          0.0001               0.0000              -0.0003    A(PC) =  -0.0001
             ----------           ----------           ----------
 A(Tot)          6.0321               6.8035              10.4349    A(iso)=    7.7568
 Orientation: 
  X          -0.7998874           -0.4923601            0.3431641
  Y           0.3214595            0.1313606            0.9377676
  Z          -0.5067976            0.8604219            0.0532001

Notes:  (1) The A matrix conforms to the "SAI" spin Hamiltonian convention.
        (2) Tensor is right-handed.

 Raw EFG matrix (all values in a.u.**-3):
            -0.0213      -0.0102      -0.0060
            -0.0102       0.0965       0.0148
            -0.0060       0.0148      -0.0752

 V(El)       0.2444       0.1946      -0.4390
 V(Nuc)     -0.2662      -0.2716       0.5378
         ----------   ----------   ----------
 V(Tot)     -0.0218      -0.0770       0.0988 
 Orientation: 
  X       0.9918096    0.0920232    0.0885745
  Y       0.0959521   -0.0791018   -0.9922379
  Z      -0.0843025    0.9926100   -0.0872838

Note: Tensor is right-handed

 RHO(0)=    119.447973988 a.u.**-3

 -----------------------------------------------------------
 Nucleus  17C : A:ISTP=   13 I=  0.5 P=134.1903 MHz/au**3
                Q:ISTP=   13 I=  0.5 Q=  0.0000 barn     
 -----------------------------------------------------------
 Solving for nuclear perturbation:
Forming RHS of the CP-SCF equations         ... 
Using LibInt in CPSCF-CP

Calculating nucleus orbit integrals         ... done

------------------------------------------------------------------------------
                           ORCA CP-SCF CALCULATION
------------------------------------------------------------------------------

Input orbitals are from        ... tempo_epr_NHC_2.gbw
Input Perturbation             ... tempo_epr_NHC_2.pin.tmp
Wavefunction output            ... tempo_epr_NHC_2.pout.tmp
Perturbation mode              ... Imaginary perturbation
Solver                         ... POPLE
Max. number of iterations      ... 64
Convergence tolerance          ... 1.000e-06
Integral handling              ... Direct
COSX GridX                     ... 1
Number of perturbations        ... 3
Number of operators            ... 2
Orbital ranges used for CP-SCF:
 Operator 0:  Orbitals   0... 43  to  44...312
 Operator 1:  Orbitals   0... 42  to  43...312
DFT calculation                         ... on
The RIJCOSX approximation is active
Variables per vector in CP-SCF ... 23446
Number of vectors sought       ... 3
     CP-SCF ITERATION   0: 
     CP-SCF ITERATION   1:      0.000082639479
     CP-SCF ITERATION   2:      0.000005101202
     CP-SCF ITERATION   3:      0.000000273856

Forming final perturbed densities           ... done
Transforming perturbed density to AO basis  ... done

Using FinalGrid as integration grid:         ... finished setting up the grid
Time for grid setup =    0.009 sec

 Raw HFC matrix (all values in MHz): 
 ------------------------------
                20.5178              -1.0035               3.1164
                -1.0063              14.0729              -0.7473
                 3.1095              -0.7587              16.2989

 A(FC)          16.9645              16.9645              16.9645
 A(SD)          -3.1172              -2.2728               5.3901
 A(ORB+DIA)     -0.0060               0.0021               0.0001    A(PC) =  -0.0013
 A(ORB)         -0.0060               0.0020               0.0003    A(PC) =  -0.0012
 A(DIA)          0.0000               0.0000              -0.0002    A(PC) =  -0.0001
             ----------           ----------           ----------
 A(Tot)         13.8412              14.6937              22.3547    A(iso)=   16.9632
 Orientation: 
  X           0.0195758           -0.4892805            0.8719067
  Y           0.9630821           -0.2249645           -0.1478643
  Z           0.2684952            0.8426123            0.4668134

Notes:  (1) The A matrix conforms to the "SAI" spin Hamiltonian convention.
        (2) Tensor is right-handed.

 Raw EFG matrix (all values in a.u.**-3):
             0.0600      -0.0269       0.0500
            -0.0269      -0.0173      -0.0146
             0.0500      -0.0146      -0.0427

 V(El)       0.1947       0.2090      -0.4037
 V(Nuc)     -0.2205      -0.2722       0.4927
         ----------   ----------   ----------
 V(Tot)     -0.0257      -0.0633       0.0890 
 Orientation: 
  X       0.2871427   -0.3586350    0.8882173
  Y       0.9575933    0.0844837   -0.2754587
  Z       0.0237492    0.9296470    0.3676853

Note: Tensor is right-handed

 RHO(0)=    119.444666134 a.u.**-3

 -----------------------------------------------------------
 Nucleus  21C : A:ISTP=   13 I=  0.5 P=134.1903 MHz/au**3
                Q:ISTP=   13 I=  0.5 Q=  0.0000 barn     
 -----------------------------------------------------------
 Solving for nuclear perturbation:
Forming RHS of the CP-SCF equations         ... 
Using LibInt in CPSCF-CP

Calculating nucleus orbit integrals         ... done

------------------------------------------------------------------------------
                           ORCA CP-SCF CALCULATION
------------------------------------------------------------------------------

Input orbitals are from        ... tempo_epr_NHC_2.gbw
Input Perturbation             ... tempo_epr_NHC_2.pin.tmp
Wavefunction output            ... tempo_epr_NHC_2.pout.tmp
Perturbation mode              ... Imaginary perturbation
Solver                         ... POPLE
Max. number of iterations      ... 64
Convergence tolerance          ... 1.000e-06
Integral handling              ... Direct
COSX GridX                     ... 1
Number of perturbations        ... 3
Number of operators            ... 2
Orbital ranges used for CP-SCF:
 Operator 0:  Orbitals   0... 43  to  44...312
 Operator 1:  Orbitals   0... 42  to  43...312
DFT calculation                         ... on
The RIJCOSX approximation is active
Variables per vector in CP-SCF ... 23446
Number of vectors sought       ... 3
     CP-SCF ITERATION   0: 
     CP-SCF ITERATION   1:      0.000074968456
     CP-SCF ITERATION   2:      0.000004448059
     CP-SCF ITERATION   3:      0.000000259168

Forming final perturbed densities           ... done
Transforming perturbed density to AO basis  ... done

Using FinalGrid as integration grid:         ... finished setting up the grid
Time for grid setup =    0.009 sec

 Raw HFC matrix (all values in MHz): 
 ------------------------------
                14.4224              -1.7806               1.1369
                -1.7778              20.1423              -2.9988
                 1.1473              -2.9906              16.2979

 A(FC)          16.9555              16.9555              16.9555
 A(SD)          -3.1139              -2.2711               5.3849
 A(ORB+DIA)     -0.0061               0.0021               0.0001    A(PC) =  -0.0013
 A(ORB)         -0.0061               0.0020               0.0003    A(PC) =  -0.0013
 A(DIA)          0.0000               0.0000              -0.0002    A(PC) =  -0.0001
             ----------           ----------           ----------
 A(Tot)         13.8356              14.6865              22.3405    A(iso)=   16.9542
 Orientation: 
  X           0.9530288            0.1598916            0.2572369
  Y           0.1418735            0.5147035           -0.8455485
  Z          -0.2675968            0.8423271            0.4678428

Notes:  (1) The A matrix conforms to the "SAI" spin Hamiltonian convention.
        (2) Tensor is right-handed.

 Raw EFG matrix (all values in a.u.**-3):
            -0.0089      -0.0348       0.0197
            -0.0348       0.0518      -0.0473
             0.0197      -0.0473      -0.0429

 V(El)       0.1980       0.2085      -0.4065
 V(Nuc)     -0.2227      -0.2715       0.4942
         ----------   ----------   ----------
 V(Tot)     -0.0247      -0.0630       0.0877 
 Orientation: 
  X       0.9175722   -0.1144283    0.3807460
  Y       0.3959786    0.3486210   -0.8495083
  Z      -0.0355282    0.9302524    0.3651961

Note: Tensor is right-handed

 RHO(0)=    119.444453678 a.u.**-3

 -----------------------------------------------------------
 Nucleus  25C : A:ISTP=   13 I=  0.5 P=134.1903 MHz/au**3
                Q:ISTP=   13 I=  0.5 Q=  0.0000 barn     
 -----------------------------------------------------------
 Solving for nuclear perturbation:
Forming RHS of the CP-SCF equations         ... 
Using LibInt in CPSCF-CP

Calculating nucleus orbit integrals         ... done

------------------------------------------------------------------------------
                           ORCA CP-SCF CALCULATION
------------------------------------------------------------------------------

Input orbitals are from        ... tempo_epr_NHC_2.gbw
Input Perturbation             ... tempo_epr_NHC_2.pin.tmp
Wavefunction output            ... tempo_epr_NHC_2.pout.tmp
Perturbation mode              ... Imaginary perturbation
Solver                         ... POPLE
Max. number of iterations      ... 64
Convergence tolerance          ... 1.000e-06
Integral handling              ... Direct
COSX GridX                     ... 1
Number of perturbations        ... 3
Number of operators            ... 2
Orbital ranges used for CP-SCF:
 Operator 0:  Orbitals   0... 43  to  44...312
 Operator 1:  Orbitals   0... 42  to  43...312
DFT calculation                         ... on
The RIJCOSX approximation is active
Variables per vector in CP-SCF ... 23446
Number of vectors sought       ... 3
     CP-SCF ITERATION   0: 
     CP-SCF ITERATION   1:      0.000111129758
     CP-SCF ITERATION   2:      0.000007783337
     CP-SCF ITERATION   3:      0.000000723597

Forming final perturbed densities           ... done
Transforming perturbed density to AO basis  ... done

Using FinalGrid as integration grid:         ... finished setting up the grid
Time for grid setup =    0.009 sec

 Raw HFC matrix (all values in MHz): 
 ------------------------------
                 9.5249               1.7103              -0.3395
                 1.7119               7.1002               0.2052
                -0.3426               0.2179               6.5917

 A(FC)           7.7378               7.7378               7.7378
 A(SD)          -1.7268              -0.9535               2.6803
 A(ORB+DIA)     -0.0025               0.0032               0.0026    A(PC) =   0.0011
 A(ORB)         -0.0025               0.0032               0.0028    A(PC) =   0.0012
 A(DIA)          0.0001               0.0000              -0.0003    A(PC) =  -0.0001
             ----------           ----------           ----------
 A(Tot)          6.0085               6.7875              10.4207    A(iso)=    7.7389
 Orientation: 
  X           0.4157252            0.1917811            0.8890402
  Y          -0.7516800           -0.4778489            0.4545741
  Z           0.5120057           -0.8572517           -0.0544958

Notes:  (1) The A matrix conforms to the "SAI" spin Hamiltonian convention.
        (2) Tensor is right-handed.

 Raw EFG matrix (all values in a.u.**-3):
             0.0975       0.0055      -0.0149
             0.0055      -0.0219       0.0049
            -0.0149       0.0049      -0.0756

 V(El)       0.2443       0.1954      -0.4398
 V(Nuc)     -0.2660      -0.2728       0.5388
         ----------   ----------   ----------
 V(Tot)     -0.0216      -0.0774       0.0990 
 Orientation: 
  X       0.0335944    0.0873028   -0.9956152
  Y      -0.9945219   -0.0957401   -0.0419527
  Z      -0.0989829    0.9915705    0.0836082

Note: Tensor is right-handed

 RHO(0)=    119.448457286 a.u.**-3


------------------------------------------------------------------------------- 
----------------------------------------------------------------------------
                           ORCA EULER ANGLE PROGRAM
----------------------------------------------------------------------------

Only g-tensor available        -->  using g-tensor as reference tensor

Reference tensor               ...  g

g-tensor ordering              ...  |g_min> --> |gx>
                                    |g_mid> --> |gy>
                                    |g_max> --> |gz>

A- and EFG-tensor ordering     ...  the axes |Ax>, |Qx>, |Ay>, etc. are assigned
                                    such that the Euler rotation is minimal. You
                                    can find the respective eigenvalues as Ax,
                                    EFGx, Ay, etc. in the tables below.
                                    The relation of |Ax>, |Ay>,  etc. to Amin, Amid, etc.
                                    (as printed in the ORCA EPR/NMR CALCULATION Output)
                                    is obtained in the detailed printout.

Euler rotation around          ...  z - y - z
   First rotation              -->  by alpha around z
   Second rotation             -->  by beta around y'
   Third rotation              -->  by gamma around z''
   Positive / Negative angle   -->  clockwise / counterclockwise rotation

Plot EFG-tensors                    (-)
Plot HFC-tensors                    (-)
Detailed Printout                   (-)

-------------------------------------------------------------------------
          Euler rotation of hyperfine tensor to g-tensor
-------------------------------------------------------------------------

-------------------------------------------------------------------
 Atom  |   Alpha    Beta    Gamma   |   Ax       Ay       Az 
       |          [degrees]         |           [MHz]         
-------------------------------------------------------------------
 11N       -0.9      2.1      0.9      82.29     9.93    10.29
  0C      127.5     26.0    -86.3       0.78     0.62     2.86
  1C     -129.3     26.0     86.2       0.82     0.65     2.91
  2C        0.0      6.0     -0.0      -1.15    -1.24     0.35
  3C      115.1     33.6   -137.9     -11.26    -6.44   -10.93
  4C     -115.1     33.7    137.9     -11.24    -6.43   -10.91
 13C      -44.1     14.9     62.1       6.03    10.43     6.80
 17C      -70.4     30.1    101.0      22.35    13.84    14.69
 21C       70.2     30.1   -100.8      22.34    13.84    14.69
 25C       43.6     15.3    -61.8       6.01    10.42     6.79
-------------------------------------------------------------------


-------------------------------------------------------------------------------
    Euler rotation of Electric Field Gradient (EFG) tensor to g-tensor
-------------------------------------------------------------------------------

-------------------------------------------------------------------
 Atom  |   Alpha    Beta    Gamma  |   EFGx     EFGy     EFGz
       |          [degrees]        |         [a.u.**-3]       
-------------------------------------------------------------------
 11N        1.9      1.5     -2.0     -0.85     0.23     0.62
  0C     -167.3     13.0    133.4     -0.06     0.01     0.05
  1C      166.5     13.2   -132.5     -0.06     0.01     0.05
  2C        0.3     38.2     -0.3     -0.06     0.04     0.01
  3C       45.7     35.7    -49.2     -0.11     0.26    -0.16
  4C      -45.8     35.6     49.3     -0.11     0.26    -0.16
 13C      136.5     27.8   -179.8      0.10    -0.02    -0.08
 17C      -76.3     10.1     98.9      0.09    -0.03    -0.06
 21C       77.9     10.9   -100.8      0.09    -0.02    -0.06
 25C     -134.9     28.3    178.3      0.10    -0.02    -0.08
-------------------------------------------------------------------


Timings for individual modules:

Sum of individual times         ...      469.237 sec (=   7.821 min)
GTO integral calculation        ...        0.793 sec (=   0.013 min)   0.2 %
Spin-Orbit-Coupling Matrices    ...        6.021 sec (=   0.100 min)   1.3 %
SCF iterations                  ...       29.363 sec (=   0.489 min)   6.3 %
EPR/NMR calculation             ...      433.060 sec (=   7.218 min)  92.3 %
                             ****ORCA TERMINATED NORMALLY****
TOTAL RUN TIME: 0 days 0 hours 7 minutes 49 seconds 710 msec
