 Entering Gaussian System, Link 0=g16
 Initial command:
 /home/wangzhe/g16/l1.exe "/home/wangzhe/g16/Scratch/Gau-324783.inp" -scrdir="/home/wangzhe/g16/Scratch/"
 Default is to use a total of  16 processors:
                               16 via shared-memory
                                1 via Linda
 Entering Link 1 = /home/wangzhe/g16/l1.exe PID=    324785.
  
 Copyright (c) 1988-2017, Gaussian, Inc.  All Rights Reserved.
  
 This is part of the Gaussian(R) 16 program.  It is based on
 the Gaussian(R) 09 system (copyright 2009, Gaussian, Inc.),
 the Gaussian(R) 03 system (copyright 2003, Gaussian, Inc.),
 the Gaussian(R) 98 system (copyright 1998, Gaussian, Inc.),
 the Gaussian(R) 94 system (copyright 1995, Gaussian, Inc.),
 the Gaussian 92(TM) system (copyright 1992, Gaussian, Inc.),
 the Gaussian 90(TM) system (copyright 1990, Gaussian, Inc.),
 the Gaussian 88(TM) system (copyright 1988, Gaussian, Inc.),
 the Gaussian 86(TM) system (copyright 1986, Carnegie Mellon
 University), and the Gaussian 82(TM) system (copyright 1983,
 Carnegie Mellon University). Gaussian is a federally registered
 trademark of Gaussian, Inc.
  
 This software contains proprietary and confidential information,
 including trade secrets, belonging to Gaussian, Inc.
  
 This software is provided under written license and may be
 used, copied, transmitted, or stored only in accord with that
 written license.
  
 The following legend is applicable only to US Government
 contracts under FAR:
  
                    RESTRICTED RIGHTS LEGEND
  
 Use, reproduction and disclosure by the US Government is
 subject to restrictions as set forth in subparagraphs (a)
 and (c) of the Commercial Computer Software - Restricted
 Rights clause in FAR 52.227-19.
  
 Gaussian, Inc.
 340 Quinnipiac St., Bldg. 40, Wallingford CT 06492
  
  
 ---------------------------------------------------------------
 Warning -- This program may not be used in any manner that
 competes with the business of Gaussian, Inc. or will provide
 assistance to any competitor of Gaussian, Inc.  The licensee
 of this program is prohibited from giving any competitor of
 Gaussian, Inc. access to this program.  By using this program,
 the user acknowledges that Gaussian, Inc. is engaged in the
 business of creating and licensing software in the field of
 computational chemistry and represents and warrants to the
 licensee that it is not a competitor of Gaussian, Inc. and that
 it will not use this program in any manner prohibited above.
 ---------------------------------------------------------------
  

 Cite this work as:
 Gaussian 16, Revision B.01,
 M. J. Frisch, G. W. Trucks, H. B. Schlegel, G. E. Scuseria, 
 M. A. Robb, J. R. Cheeseman, G. Scalmani, V. Barone, 
 G. A. Petersson, H. Nakatsuji, X. Li, M. Caricato, A. V. Marenich, 
 J. Bloino, B. G. Janesko, R. Gomperts, B. Mennucci, H. P. Hratchian, 
 J. V. Ortiz, A. F. Izmaylov, J. L. Sonnenberg, D. Williams-Young, 
 F. Ding, F. Lipparini, F. Egidi, J. Goings, B. Peng, A. Petrone, 
 T. Henderson, D. Ranasinghe, V. G. Zakrzewski, J. Gao, N. Rega, 
 G. Zheng, W. Liang, M. Hada, M. Ehara, K. Toyota, R. Fukuda, 
 J. Hasegawa, M. Ishida, T. Nakajima, Y. Honda, O. Kitao, H. Nakai, 
 T. Vreven, K. Throssell, J. A. Montgomery, Jr., J. E. Peralta, 
 F. Ogliaro, M. J. Bearpark, J. J. Heyd, E. N. Brothers, K. N. Kudin, 
 V. N. Staroverov, T. A. Keith, R. Kobayashi, J. Normand, 
 K. Raghavachari, A. P. Rendell, J. C. Burant, S. S. Iyengar, 
 J. Tomasi, M. Cossi, J. M. Millam, M. Klene, C. Adamo, R. Cammi, 
 J. W. Ochterski, R. L. Martin, K. Morokuma, O. Farkas, 
 J. B. Foresman, and D. J. Fox, Gaussian, Inc., Wallingford CT, 2016.
 
 ******************************************
 Gaussian 16:  ES64L-G16RevB.01 20-Dec-2017
                27-Apr-2022 
 ******************************************
 ---------------------------------------------
 # B3LYP/6-31+G* NMR pop=nbo6read IOp(10/46=1)
 ---------------------------------------------
 1/38=1,163=2,172=1/1;
 2/12=2,17=6,18=5,40=1/2;
 3/5=1,6=6,7=11,11=2,25=1,30=1,74=-5/1,2,3,8;
 4//1;
 5/5=2,38=5/2;
 8/6=1,10=90,11=11/1;
 10/13=100,45=16,46=1/2;
 6/7=2,8=2,9=2,10=2,28=1,40=2,64=1,113=1,114=1,124=2103,125=11000/1,12;
 99/9=1/99;
 --------
 biphenyl
 --------
 Symbolic Z-matrix:
 Charge =  0 Multiplicity = 1
 H                     1.909    -0.935     0.916 
 C                     1.079    -0.517     1.452 
 C                    -1.079     0.517     2.835 
 C                     0.        0.        0.745 
 C                     1.079    -0.517     2.835 
 C                     0.        0.        3.531 
 C                    -1.079     0.517     1.452 
 H                     1.915    -0.925     3.367 
 H                     0.        0.        4.603 
 H                    -1.909     0.935     0.916 
 H                    -1.915     0.925     3.367 
 C                     0.        0.       -0.745 
 C                     0.        0.       -3.531 
 C                     1.079     0.517    -1.452 
 C                    -1.079    -0.517    -1.452 
 C                    -1.079    -0.517    -2.835 
 C                     1.079     0.517    -2.835 
 H                     1.909     0.935    -0.916 
 H                    -1.909    -0.935    -0.916 
 H                    -1.915    -0.925    -3.367 
 H                     1.915     0.925    -3.367 
 H                     0.        0.       -4.603 
 Bq                    0.43211   0.90182   2.13833 
 Bq                   -0.43211  -0.90182   2.13833 
 Bq                    0.43211  -0.90182  -2.145 
 Bq                   -0.43211   0.90182  -2.145 
 Bq                    0.        0.        2.145 
 
                          Input orientation:                          
 ---------------------------------------------------------------------
 Center     Atomic      Atomic             Coordinates (Angstroms)
 Number     Number       Type             X           Y           Z
 ---------------------------------------------------------------------
      1          1           0        1.909000   -0.935000    0.916000
      2          6           0        1.079000   -0.517000    1.452000
      3          6           0       -1.079000    0.517000    2.835000
      4          6           0        0.000000    0.000000    0.745000
      5          6           0        1.079000   -0.517000    2.835000
      6          6           0        0.000000    0.000000    3.531000
      7          6           0       -1.079000    0.517000    1.452000
      8          1           0        1.915000   -0.925000    3.367000
      9          1           0        0.000000    0.000000    4.603000
     10          1           0       -1.909000    0.935000    0.916000
     11          1           0       -1.915000    0.925000    3.367000
     12          6           0        0.000000    0.000000   -0.745000
     13          6           0        0.000000    0.000000   -3.531000
     14          6           0        1.079000    0.517000   -1.452000
     15          6           0       -1.079000   -0.517000   -1.452000
     16          6           0       -1.079000   -0.517000   -2.835000
     17          6           0        1.079000    0.517000   -2.835000
     18          1           0        1.909000    0.935000   -0.916000
     19          1           0       -1.909000   -0.935000   -0.916000
     20          1           0       -1.915000   -0.925000   -3.367000
     21          1           0        1.915000    0.925000   -3.367000
     22          1           0        0.000000    0.000000   -4.603000
     23          0           0        0.432106    0.901823    2.138333
     24          0           0       -0.432106   -0.901823    2.138333
     25          0           0        0.432106   -0.901823   -2.145000
     26          0           0       -0.432106    0.901823   -2.145000
     27          0           0        0.000000    0.000000    2.145000
 ---------------------------------------------------------------------
                    Distance matrix (angstroms):
                    1          2          3          4          5
     1  H    0.000000
     2  C    1.072809   0.000000
     3  C    3.836536   2.763840   0.000000
     4  C    2.132545   1.389741   2.408242   0.000000
     5  C    2.132178   1.383000   2.392931   2.408242   0.000000
     6  C    3.369975   2.398702   1.384177   2.786000   1.384177
     7  C    3.365077   2.392931   1.383000   1.389741   2.763840
     8  H    2.451028   2.128987   3.365475   3.376053   1.071627
     9  H    4.255875   3.370509   2.134796   3.858000   2.134796
    10  H    4.251356   3.365077   2.132178   2.132545   3.836536
    11  H    4.908154   3.835443   1.071627   3.376053   3.365475
    12  C    2.697671   2.501667   3.774643   1.490000   3.774643
    13  C    4.928926   5.124629   6.477460   4.276000   6.477460
    14  C    2.899074   3.082592   4.799514   2.501667   4.409935
    15  C    3.835400   3.618035   4.409935   2.501667   4.799514
    16  C    4.813821   4.799514   5.763511   3.774643   6.066784
    17  C    4.106970   4.409935   6.066784   3.774643   5.763511
    18  H    2.617847   2.899074   4.813821   2.697671   4.106970
    19  H    4.234778   3.835400   4.106970   2.697671   4.813821
    20  H    5.741704   5.687993   6.422076   4.629405   6.898935
    21  H    4.669446   5.099120   6.898935   4.629405   6.422076
    22  H    5.914209   6.172079   7.533616   5.348000   7.533616
    23  Bq   2.655039   1.703697   1.707886   1.715044   1.707886
    24  Bq   2.641207   1.703697   1.707886   1.715044   1.707886
    25  Bq   3.398829   3.674911   5.394154   3.058120   5.036562
    26  Bq   4.269007   4.151495   5.036562   3.058120   5.394154
    27  Bq   2.455391   1.382671   1.381170   1.400000   1.381170
                    6          7          8          9         10
     6  C    0.000000
     7  C    2.398702   0.000000
     8  H    2.133013   3.835443   0.000000
     9  H    1.072000   3.370509   2.459786   0.000000
    10  H    3.369975   1.072809   4.908154   4.255875   0.000000
    11  H    2.133013   2.128987   4.253399   2.459786   2.451028
    12  C    4.276000   2.501667   4.629405   5.348000   2.697671
    13  C    7.062000   5.124629   7.218397   8.134000   4.928926
    14  C    5.124629   3.618035   5.099120   6.172079   3.835400
    15  C    5.124629   3.082592   5.687993   6.172079   2.899074
    16  C    6.477460   4.409935   6.898935   7.533616   4.106970
    17  C    6.477460   4.799514   6.422076   7.533616   4.813821
    18  H    4.928926   3.835400   4.669446   5.914209   4.234778
    19  H    4.928926   2.899074   5.741704   5.914209   2.617847
    20  H    7.218397   5.099120   7.746977   8.248864   4.669446
    21  H    7.218397   5.687993   6.983499   8.248864   5.741704
    22  H    8.134000   6.172079   8.248864   9.206000   5.914209
    23  Bq   1.714503   1.703697   2.654408   2.659809   2.641207
    24  Bq   1.714503   1.703697   2.649352   2.659809   2.655039
    25  Bq   5.763417   4.151495   5.708034   6.821694   4.269007
    26  Bq   5.763417   3.674911   6.263253   6.821694   3.398829
    27  Bq   1.386000   1.382671   2.452781   2.458000   2.455391
                   11         12         13         14         15
    11  H    0.000000
    12  C    4.629405   0.000000
    13  C    7.218397   2.786000   0.000000
    14  C    5.687993   1.389741   2.398702   0.000000
    15  C    5.099120   1.389741   2.398702   2.392931   0.000000
    16  C    6.422076   2.408242   1.384177   2.763840   1.383000
    17  C    6.898935   2.408242   1.384177   1.383000   2.763840
    18  H    5.741704   2.132545   3.369975   1.072809   3.365077
    19  H    4.669446   2.132545   3.369975   3.365077   1.072809
    20  H    6.983499   3.376053   2.133013   3.835443   2.128987
    21  H    7.746977   3.376053   2.133013   2.128987   3.835443
    22  H    8.248864   3.858000   1.072000   3.370509   3.370509
    23  Bq   2.649352   3.051821   5.756851   3.668385   4.145720
    24  Bq   2.654408   3.051821   5.756851   4.145720   3.668385
    25  Bq   6.263253   1.720465   1.709092   1.706394   1.706394
    26  Bq   5.708034   1.720465   1.709092   1.706394   1.706394
    27  Bq   2.452781   2.890000   5.676000   3.790770   3.790770
                   16         17         18         19         20
    16  C    0.000000
    17  C    2.392931   0.000000
    18  H    3.836536   2.132178   0.000000
    19  H    2.132178   3.836536   4.251356   0.000000
    20  H    1.071627   3.365475   4.908154   2.451028   0.000000
    21  H    3.365475   1.071627   2.451028   4.908154   4.253399
    22  H    2.134796   2.134796   4.255875   4.255875   2.459786
    23  Bq   5.388000   5.029970   3.392826   4.264229   6.257386
    24  Bq   5.029970   5.388000   4.264229   3.392826   5.701597
    25  Bq   1.705177   1.705178   2.658115   2.644299   2.646267
    26  Bq   1.705178   1.705177   2.644299   2.658115   2.651328
    27  Bq   5.121712   5.121712   3.726691   3.726691   5.908045
                   21         22         23         24         25
    21  H    0.000000
    22  H    2.459786   0.000000
    23  Bq   5.701597   6.815099   0.000000
    24  Bq   6.257386   6.815099   2.000000   0.000000
    25  Bq   2.651328   2.653632   4.647589   4.369646   0.000000
    26  Bq   2.646267   2.653632   4.369646   4.647589   2.000000
    27  Bq   5.908045   6.748000   1.000022   1.000022   4.405009
                   26         27
    26  Bq   0.000000
    27  Bq   4.405009   0.000000
 Symmetry turned off:
 Cannot cope with ghost atoms or with translation vectors.
 Stoichiometry    C12H10
 Framework group  C1[X(C12H10)]
 NumDoF:  NAt=    22 NAtoms=    27
 Deg. of freedom     0
 Full point group                 C1      NOp   1
 Rotational constants (GHZ):           2.9065601           0.5469699           0.4894380
 Standard basis: 6-31+G(d) (6D, 7F)
 Warning:  center  23 has no basis functions!
 Warning:  center  24 has no basis functions!
 Warning:  center  25 has no basis functions!
 Warning:  center  26 has no basis functions!
 Warning:  center  27 has no basis functions!
   248 basis functions,   424 primitive gaussians,   248 cartesian basis functions
    41 alpha electrons       41 beta electrons
       nuclear repulsion energy       603.6547483818 Hartrees.
 NAtoms=   27 NActive=   27 NUniq=   27 SFac= 1.00D+00 NAtFMM=   60 NAOKFM=F Big=F
 Integral buffers will be    131072 words long.
 Raffenetti 2 integral format.
 Two-electron integral symmetry is turned off.
 One-electron integrals computed using PRISM.
 NBasis=   248 RedAO= T EigKep=  1.62D-06  NBF=   248
 NBsUse=   248 1.00D-06 EigRej= -1.00D+00 NBFU=   248
 ExpMin= 4.38D-02 ExpMax= 3.05D+03 ExpMxC= 4.57D+02 IAcc=3 IRadAn=         5 AccDes= 0.00D+00
 Harris functional with IExCor=  402 and IRadAn=       5 diagonalized for initial guess.
 HarFok:  IExCor=  402 AccDes= 0.00D+00 IRadAn=         5 IDoV= 1 UseB2=F ITyADJ=14
 ICtDFT=  3500011 ScaDFX=  1.000000  1.000000  1.000000  1.000000
 FoFCou: FMM=F IPFlag=           0 FMFlag=      100000 FMFlg1=           0
         NFxFlg=           0 DoJE=T BraDBF=F KetDBF=T FulRan=T
         wScrn=  0.000000 ICntrl=       500 IOpCl=  0 I1Cent=   200000004 NGrid=           0
         NMat0=    1 NMatS0=      1 NMatT0=    0 NMatD0=    1 NMtDS0=    0 NMtDT0=    0
 Symmetry not used in FoFCou.
 Requested convergence on RMS density matrix=1.00D-08 within 128 cycles.
 Requested convergence on MAX density matrix=1.00D-06.
 Requested convergence on             energy=1.00D-06.
 No special actions if energy rises.
 SCF Done:  E(RB3LYP) =  -463.318927703     A.U. after   12 cycles
            NFock= 12  Conv=0.53D-08     -V/T= 2.0086
 DoSCS=F DFT=T ScalE2(SS,OS)=  1.000000  1.000000
 Range of M.O.s used for correlation:     1   248
 NBasis=   248 NAE=    41 NBE=    41 NFC=     0 NFV=     0
 NROrb=    248 NOA=    41 NOB=    41 NVA=   207 NVB=   207

 **** Warning!!: The largest alpha MO coefficient is  0.27218004D+03

          Differentiating once with respect to magnetic field using GIAOs.
          Electric field/nuclear overlap derivatives assumed to be zero.
 FoFCou: FMM=F IPFlag=           0 FMFlag=      100000 FMFlg1=           0
         NFxFlg=           0 DoJE=F BraDBF=F KetDBF=T FulRan=T
         wScrn=  0.000000 ICntrl=      6100 IOpCl=  0 I1Cent=           7 NGrid=          27
         NMat0=    1 NMatS0=      1 NMatT0=    0 NMatD0=    1 NMtDS0=    0 NMtDT0=    0
 Symmetry not used in FoFCou.
 FoFJK:  IHMeth= 1 ICntrl=    6127 DoSepK=F KAlg= 0 I1Cent=           0 FoldK=F
 IRaf=         1 NMat=       1 IRICut=       1 DoRegI=T DoRafI=F ISym2E= 0 IDoP0=0 IntGTp=1.
          There are     3 degrees of freedom in the 1st order CPHF.  IDoFFX=0 NUNeed=     3.
      3 vectors produced by pass  0 Test12= 2.83D-13 3.33D-08 XBig12= 1.84D+02 5.39D+00.
 AX will form     3 AO Fock derivatives at one time.
      3 vectors produced by pass  1 Test12= 2.83D-13 3.33D-08 XBig12= 4.23D-01 2.69D-01.
      3 vectors produced by pass  2 Test12= 2.83D-13 3.33D-08 XBig12= 1.78D-03 1.64D-02.
      3 vectors produced by pass  3 Test12= 2.83D-13 3.33D-08 XBig12= 3.41D-06 3.91D-04.
      3 vectors produced by pass  4 Test12= 2.83D-13 3.33D-08 XBig12= 7.10D-09 2.50D-05.
      3 vectors produced by pass  5 Test12= 2.83D-13 3.33D-08 XBig12= 1.92D-11 9.38D-07.
      1 vectors produced by pass  6 Test12= 2.83D-13 3.33D-08 XBig12= 4.50D-14 4.28D-08.
 InvSVY:  IOpt=1 It=  1 EMax= 1.78D-15
 Solved reduced A of dimension    19 with     3 vectors.
 Calculating GIAO nuclear magnetic shielding tensors.
 SCF GIAO Magnetic shielding tensor (ppm):
      1  H    Isotropic =    24.9975   Anisotropy =     8.3667
   XX=    24.4493   YX=    -0.6875   ZX=     2.5093
   XY=    -2.4371   YY=    21.9864   ZY=    -3.9076
   XZ=     2.0014   YZ=    -1.1813   ZZ=    28.5568
   Eigenvalues:    20.9104    23.5068    30.5753
      2  C    Isotropic =    70.3583   Anisotropy =   153.8775
   XX=    33.2018   YX=    71.6375   ZX=    31.7625
   XY=    80.5893   YY=   131.2452   ZY=    -6.9587
   XZ=    30.1170   YZ=   -16.0089   ZZ=    46.6281
   Eigenvalues:   -23.5383    61.6700   172.9433
      3  C    Isotropic =    70.4697   Anisotropy =   165.8621
   XX=    29.2387   YX=    74.0132   ZX=    34.0265
   XY=    74.6276   YY=   144.6565   ZY=   -17.5097
   XZ=    33.5477   YZ=   -16.7204   ZZ=    37.5139
   Eigenvalues:   -28.7815    59.1462   181.0444
      4  C    Isotropic =    52.7380   Anisotropy =   179.0617
   XX=    54.9437   YX=    56.3170   ZX=     0.0000
   XY=    80.1859   YY=   132.3556   ZY=     0.0000
   XZ=    -0.0000   YZ=     0.0000   ZZ=   -29.0854
   Eigenvalues:   -29.0854    15.1869   172.1124
      5  C    Isotropic =    70.4697   Anisotropy =   165.8621
   XX=    29.2387   YX=    74.0132   ZX=   -34.0265
   XY=    74.6276   YY=   144.6565   ZY=    17.5097
   XZ=   -33.5477   YZ=    16.7204   ZZ=    37.5139
   Eigenvalues:   -28.7815    59.1462   181.0444
      6  C    Isotropic =    72.6356   Anisotropy =   165.8839
   XX=    82.7208   YX=    48.2845   ZX=     0.0000
   XY=    44.8026   YY=   161.6705   ZY=    -0.0000
   XZ=    -0.0000   YZ=     0.0000   ZZ=   -26.4845
   Eigenvalues:   -26.4845    61.1664   183.2249
      7  C    Isotropic =    70.3583   Anisotropy =   153.8775
   XX=    33.2018   YX=    71.6375   ZX=   -31.7625
   XY=    80.5893   YY=   131.2452   ZY=     6.9587
   XZ=   -30.1170   YZ=    16.0089   ZZ=    46.6281
   Eigenvalues:   -23.5383    61.6700   172.9433
      8  H    Isotropic =    25.0128   Anisotropy =     4.8549
   XX=    25.0566   YX=    -1.3170   ZX=    -0.9207
   XY=    -1.3497   YY=    22.1586   ZY=     0.2782
   XZ=    -1.0754   YZ=     0.4781   ZZ=    27.8232
   Eigenvalues:    21.6384    25.1506    28.2494
      9  H    Isotropic =    25.0683   Anisotropy =     4.3672
   XX=    26.9393   YX=    -2.2098   ZX=    -0.0000
   XY=    -2.3756   YY=    22.9271   ZY=     0.0000
   XZ=     0.0000   YZ=     0.0000   ZZ=    25.3383
   Eigenvalues:    21.8868    25.3383    27.9797
     10  H    Isotropic =    24.9975   Anisotropy =     8.3667
   XX=    24.4493   YX=    -0.6875   ZX=    -2.5093
   XY=    -2.4371   YY=    21.9864   ZY=     3.9076
   XZ=    -2.0014   YZ=     1.1813   ZZ=    28.5568
   Eigenvalues:    20.9104    23.5068    30.5753
     11  H    Isotropic =    25.0128   Anisotropy =     4.8549
   XX=    25.0566   YX=    -1.3170   ZX=     0.9207
   XY=    -1.3497   YY=    22.1586   ZY=    -0.2782
   XZ=     1.0754   YZ=    -0.4781   ZZ=    27.8232
   Eigenvalues:    21.6384    25.1506    28.2494
     12  C    Isotropic =    52.7380   Anisotropy =   179.0617
   XX=    54.9437   YX=   -56.3170   ZX=     0.0000
   XY=   -80.1859   YY=   132.3556   ZY=    -0.0000
   XZ=    -0.0000   YZ=    -0.0000   ZZ=   -29.0854
   Eigenvalues:   -29.0854    15.1869   172.1124
     13  C    Isotropic =    72.6356   Anisotropy =   165.8839
   XX=    82.7208   YX=   -48.2845   ZX=     0.0000
   XY=   -44.8026   YY=   161.6705   ZY=     0.0000
   XZ=    -0.0000   YZ=     0.0000   ZZ=   -26.4845
   Eigenvalues:   -26.4845    61.1664   183.2249
     14  C    Isotropic =    70.3583   Anisotropy =   153.8775
   XX=    33.2018   YX=   -71.6375   ZX=   -31.7625
   XY=   -80.5893   YY=   131.2452   ZY=    -6.9587
   XZ=   -30.1170   YZ=   -16.0089   ZZ=    46.6281
   Eigenvalues:   -23.5383    61.6700   172.9433
     15  C    Isotropic =    70.3583   Anisotropy =   153.8775
   XX=    33.2018   YX=   -71.6375   ZX=    31.7625
   XY=   -80.5893   YY=   131.2452   ZY=     6.9587
   XZ=    30.1170   YZ=    16.0089   ZZ=    46.6281
   Eigenvalues:   -23.5383    61.6700   172.9433
     16  C    Isotropic =    70.4697   Anisotropy =   165.8621
   XX=    29.2387   YX=   -74.0132   ZX=   -34.0265
   XY=   -74.6276   YY=   144.6565   ZY=   -17.5097
   XZ=   -33.5477   YZ=   -16.7204   ZZ=    37.5139
   Eigenvalues:   -28.7815    59.1462   181.0444
     17  C    Isotropic =    70.4697   Anisotropy =   165.8621
   XX=    29.2387   YX=   -74.0132   ZX=    34.0265
   XY=   -74.6276   YY=   144.6565   ZY=    17.5097
   XZ=    33.5477   YZ=    16.7204   ZZ=    37.5139
   Eigenvalues:   -28.7815    59.1462   181.0444
     18  H    Isotropic =    24.9975   Anisotropy =     8.3667
   XX=    24.4493   YX=     0.6875   ZX=    -2.5093
   XY=     2.4371   YY=    21.9864   ZY=    -3.9076
   XZ=    -2.0014   YZ=    -1.1813   ZZ=    28.5568
   Eigenvalues:    20.9104    23.5068    30.5753
     19  H    Isotropic =    24.9975   Anisotropy =     8.3667
   XX=    24.4493   YX=     0.6875   ZX=     2.5093
   XY=     2.4371   YY=    21.9864   ZY=     3.9076
   XZ=     2.0014   YZ=     1.1813   ZZ=    28.5568
   Eigenvalues:    20.9104    23.5068    30.5753
     20  H    Isotropic =    25.0128   Anisotropy =     4.8549
   XX=    25.0566   YX=     1.3170   ZX=    -0.9207
   XY=     1.3497   YY=    22.1586   ZY=    -0.2782
   XZ=    -1.0754   YZ=    -0.4781   ZZ=    27.8232
   Eigenvalues:    21.6384    25.1506    28.2494
     21  H    Isotropic =    25.0128   Anisotropy =     4.8549
   XX=    25.0566   YX=     1.3170   ZX=     0.9207
   XY=     1.3497   YY=    22.1586   ZY=     0.2782
   XZ=     1.0754   YZ=     0.4781   ZZ=    27.8232
   Eigenvalues:    21.6384    25.1506    28.2494
     22  H    Isotropic =    25.0683   Anisotropy =     4.3672
   XX=    26.9393   YX=     2.2098   ZX=    -0.0000
   XY=     2.3756   YY=    22.9271   ZY=    -0.0000
   XZ=     0.0000   YZ=    -0.0000   ZZ=    25.3383
   Eigenvalues:    21.8868    25.3383    27.9797
     23  Bq   Isotropic =     9.7140   Anisotropy =    27.2308
   XX=     5.4968   YX=    10.9996   ZX=    -0.5944
   XY=    11.3150   YY=    22.2996   ZY=     0.4893
   XZ=     0.0621   YZ=     0.3983   ZZ=     1.3455
   Eigenvalues:    -0.1925     1.4666    27.8679
     24  Bq   Isotropic =     9.7140   Anisotropy =    27.2308
   XX=     5.4968   YX=    10.9996   ZX=     0.5944
   XY=    11.3150   YY=    22.2996   ZY=    -0.4893
   XZ=    -0.0621   YZ=    -0.3983   ZZ=     1.3455
   Eigenvalues:    -0.1925     1.4666    27.8679
     25  Bq   Isotropic =     9.7150   Anisotropy =    27.2288
   XX=     5.4966   YX=   -10.9968   ZX=     0.5903
   XY=   -11.3124   YY=    22.3024   ZY=     0.4871
   XZ=    -0.0521   YZ=     0.3732   ZZ=     1.3461
   Eigenvalues:    -0.1882     1.4657    27.8676
     26  Bq   Isotropic =     9.7150   Anisotropy =    27.2288
   XX=     5.4966   YX=   -10.9968   ZX=    -0.5903
   XY=   -11.3124   YY=    22.3024   ZY=    -0.4871
   XZ=     0.0521   YZ=    -0.3732   ZZ=     1.3461
   Eigenvalues:    -0.1882     1.4657    27.8676
     27  Bq   Isotropic =     7.7397   Anisotropy =     6.5631
   XX=     7.0404   YX=     2.7285   ZX=    -0.0000
   XY=     3.6720   YY=    10.0969   ZY=    -0.0000
   XZ=    -0.0000   YZ=     0.0000   ZZ=     6.0817
   Eigenvalues:     5.0222     6.0817    12.1151
 End of Minotr F.D. properties file   721 does not exist.
 End of Minotr F.D. properties file   722 does not exist.
 End of Minotr F.D. properties file   788 does not exist.

 **********************************************************************

            Population analysis using the SCF Density.

 **********************************************************************

 Alpha  occ. eigenvalues --  -10.20188 -10.20159 -10.19333 -10.19333 -10.19317
 Alpha  occ. eigenvalues --  -10.19317 -10.19211 -10.19211 -10.19176 -10.19175
 Alpha  occ. eigenvalues --  -10.19173 -10.19172  -0.87904  -0.85758  -0.78497
 Alpha  occ. eigenvalues --   -0.75830  -0.75238  -0.72958  -0.63032  -0.62424
 Alpha  occ. eigenvalues --   -0.60291  -0.58560  -0.54066  -0.50959  -0.47459
 Alpha  occ. eigenvalues --   -0.46837  -0.45057  -0.44787  -0.43139  -0.42728
 Alpha  occ. eigenvalues --   -0.42629  -0.38114  -0.37407  -0.36784  -0.35559
 Alpha  occ. eigenvalues --   -0.34494  -0.33922  -0.27642  -0.26081  -0.25866
 Alpha  occ. eigenvalues --   -0.23770
 Alpha virt. eigenvalues --   -0.03007  -0.01616  -0.01022   0.00218   0.00894
 Alpha virt. eigenvalues --    0.01107   0.02241   0.03155   0.03174   0.04561
 Alpha virt. eigenvalues --    0.04596   0.05010   0.05683   0.05926   0.07182
 Alpha virt. eigenvalues --    0.07651   0.08108   0.09217   0.10069   0.10422
 Alpha virt. eigenvalues --    0.11218   0.11672   0.12071   0.12539   0.13321
 Alpha virt. eigenvalues --    0.13601   0.13922   0.14628   0.15431   0.16031
 Alpha virt. eigenvalues --    0.16060   0.16858   0.17117   0.17741   0.17933
 Alpha virt. eigenvalues --    0.18868   0.19508   0.20016   0.20559   0.20834
 Alpha virt. eigenvalues --    0.21053   0.21503   0.21896   0.22400   0.23033
 Alpha virt. eigenvalues --    0.23363   0.23369   0.24340   0.24495   0.25414
 Alpha virt. eigenvalues --    0.25653   0.25869   0.26724   0.27914   0.27972
 Alpha virt. eigenvalues --    0.28466   0.29024   0.29284   0.30361   0.30372
 Alpha virt. eigenvalues --    0.31019   0.31175   0.32807   0.33292   0.33621
 Alpha virt. eigenvalues --    0.35176   0.35240   0.36140   0.37001   0.37256
 Alpha virt. eigenvalues --    0.40211   0.41633   0.47558   0.57250   0.59867
 Alpha virt. eigenvalues --    0.61707   0.62470   0.65825   0.67745   0.69121
 Alpha virt. eigenvalues --    0.70094   0.70158   0.70893   0.71498   0.72830
 Alpha virt. eigenvalues --    0.72964   0.73210   0.74192   0.74469   0.74703
 Alpha virt. eigenvalues --    0.75944   0.76186   0.77396   0.79003   0.79006
 Alpha virt. eigenvalues --    0.81760   0.83136   0.83567   0.85609   0.87000
 Alpha virt. eigenvalues --    0.88137   0.90732   0.91323   0.92229   0.93498
 Alpha virt. eigenvalues --    0.94569   0.94892   0.96564   0.99533   1.00907
 Alpha virt. eigenvalues --    1.00939   1.01725   1.03485   1.04504   1.05526
 Alpha virt. eigenvalues --    1.10829   1.11239   1.12667   1.16019   1.16186
 Alpha virt. eigenvalues --    1.16511   1.18341   1.19319   1.21043   1.22572
 Alpha virt. eigenvalues --    1.27042   1.27256   1.30573   1.30661   1.34276
 Alpha virt. eigenvalues --    1.35054   1.43140   1.44327   1.44637   1.46203
 Alpha virt. eigenvalues --    1.47615   1.48024   1.49100   1.49351   1.49446
 Alpha virt. eigenvalues --    1.49919   1.50955   1.52472   1.68019   1.73263
 Alpha virt. eigenvalues --    1.83833   1.84025   1.86392   1.88079   1.90496
 Alpha virt. eigenvalues --    1.93292   1.95465   1.98469   1.98655   2.01779
 Alpha virt. eigenvalues --    2.03293   2.08470   2.09779   2.11625   2.13919
 Alpha virt. eigenvalues --    2.15353   2.15691   2.17036   2.18532   2.20114
 Alpha virt. eigenvalues --    2.21089   2.24271   2.26061   2.30862   2.31604
 Alpha virt. eigenvalues --    2.32368   2.32558   2.32642   2.40837   2.42971
 Alpha virt. eigenvalues --    2.55449   2.59211   2.61574   2.64537   2.66479
 Alpha virt. eigenvalues --    2.68285   2.70645   2.72516   2.74960   2.75743
 Alpha virt. eigenvalues --    2.78063   2.79888   2.80629   2.84395   2.85688
 Alpha virt. eigenvalues --    3.01127   3.01751   3.18440   3.41022   3.49908
 Alpha virt. eigenvalues --    4.25956   4.26255   4.26902   4.27938   4.33356
 Alpha virt. eigenvalues --    4.37911   4.39088   4.39572   4.40560   4.49970
 Alpha virt. eigenvalues --    4.67277   4.78161
          Condensed to atoms (all electrons):
               1          2          3          4          5          6
     1  H    0.547914   0.244119  -0.024394  -0.047964  -0.071238   0.014150
     2  C    0.244119  15.463332   0.165538  -3.466169  -2.216603   0.643145
     3  C   -0.024394   0.165538   7.112221   1.377797   0.306475  -0.049264
     4  C   -0.047964  -3.466169   1.377797  15.786342   1.377797  -1.320266
     5  C   -0.071238  -2.216603   0.306475   1.377797   7.112221  -0.049264
     6  C    0.014150   0.643145  -0.049264  -1.320266  -0.049264   5.880394
     7  C    0.071940  -5.611584  -2.216603  -3.466169   0.165538   0.643145
     8  H   -0.005344  -0.027043   0.012673   0.020592   0.306588  -0.006360
     9  H   -0.000180   0.008527  -0.005158  -0.006202  -0.005158   0.287500
    10  H   -0.000190   0.071940  -0.071238  -0.047964  -0.024394   0.014150
    11  H    0.000022  -0.007019   0.306588   0.020592   0.012673  -0.006360
    12  C    0.030027   0.235536  -0.527478  -4.003766  -0.527478  -0.101884
    13  C    0.000863   0.087081   0.005958  -0.101884   0.005958   0.009440
    14  C    0.099084   0.497658   0.221650   0.235536  -0.284694   0.087081
    15  C   -0.069127   0.262438  -0.284694   0.235536   0.221650   0.087081
    16  C    0.000259   0.221650  -0.014961  -0.527478  -0.079158   0.005958
    17  C    0.028137  -0.284694  -0.079158  -0.527478  -0.014961   0.005958
    18  H    0.000476   0.099084   0.000259   0.030027   0.028137   0.000863
    19  H    0.000018  -0.069127   0.028137   0.030027   0.000259   0.000863
    20  H    0.000000   0.002145  -0.000182  -0.004828   0.000082  -0.000049
    21  H    0.000004  -0.006143   0.000082  -0.004828  -0.000182  -0.000049
    22  H   -0.000000  -0.000105  -0.000122   0.002251  -0.000122   0.000022
    23  Bq   0.000000   0.000000   0.000000   0.000000   0.000000   0.000000
    24  Bq   0.000000   0.000000   0.000000   0.000000   0.000000   0.000000
    25  Bq   0.000000   0.000000   0.000000   0.000000   0.000000   0.000000
    26  Bq   0.000000   0.000000   0.000000   0.000000   0.000000   0.000000
    27  Bq   0.000000   0.000000   0.000000   0.000000   0.000000   0.000000
               7          8          9         10         11         12
     1  H    0.071940  -0.005344  -0.000180  -0.000190   0.000022   0.030027
     2  C   -5.611584  -0.027043   0.008527   0.071940  -0.007019   0.235536
     3  C   -2.216603   0.012673  -0.005158  -0.071238   0.306588  -0.527478
     4  C   -3.466169   0.020592  -0.006202  -0.047964   0.020592  -4.003766
     5  C    0.165538   0.306588  -0.005158  -0.024394   0.012673  -0.527478
     6  C    0.643145  -0.006360   0.287500   0.014150  -0.006360  -0.101884
     7  C   15.463332  -0.007019   0.008527   0.244119  -0.027043   0.235536
     8  H   -0.007019   0.543115  -0.005473   0.000022  -0.000195  -0.004828
     9  H    0.008527  -0.005473   0.545706  -0.000180  -0.005473   0.002251
    10  H    0.244119   0.000022  -0.000180   0.547914  -0.005344   0.030027
    11  H   -0.027043  -0.000195  -0.005473  -0.005344   0.543115  -0.004828
    12  C    0.235536  -0.004828   0.002251   0.030027  -0.004828  15.786342
    13  C    0.087081  -0.000049   0.000022   0.000863  -0.000049  -1.320266
    14  C    0.262438  -0.006143  -0.000105  -0.069127   0.002145  -3.466169
    15  C    0.497658   0.002145  -0.000105   0.099084  -0.006143  -3.466169
    16  C   -0.284694   0.000082  -0.000122   0.028137  -0.000182   1.377798
    17  C    0.221650  -0.000182  -0.000122   0.000259   0.000082   1.377797
    18  H   -0.069127   0.000004  -0.000000   0.000018   0.000000  -0.047964
    19  H    0.099084   0.000000  -0.000000   0.000476   0.000004  -0.047964
    20  H   -0.006143   0.000000   0.000000   0.000004   0.000000   0.020592
    21  H    0.002145   0.000000   0.000000   0.000000   0.000000   0.020592
    22  H   -0.000105   0.000000  -0.000000  -0.000000   0.000000  -0.006202
    23  Bq   0.000000   0.000000   0.000000   0.000000   0.000000   0.000000
    24  Bq   0.000000   0.000000   0.000000   0.000000   0.000000   0.000000
    25  Bq   0.000000   0.000000   0.000000   0.000000   0.000000   0.000000
    26  Bq   0.000000   0.000000   0.000000   0.000000   0.000000   0.000000
    27  Bq   0.000000   0.000000   0.000000   0.000000   0.000000   0.000000
              13         14         15         16         17         18
     1  H    0.000863   0.099084  -0.069127   0.000259   0.028137   0.000476
     2  C    0.087081   0.497658   0.262438   0.221650  -0.284694   0.099084
     3  C    0.005958   0.221650  -0.284694  -0.014961  -0.079158   0.000259
     4  C   -0.101884   0.235536   0.235536  -0.527478  -0.527478   0.030027
     5  C    0.005958  -0.284694   0.221650  -0.079158  -0.014961   0.028137
     6  C    0.009440   0.087081   0.087081   0.005958   0.005958   0.000863
     7  C    0.087081   0.262438   0.497658  -0.284694   0.221650  -0.069127
     8  H   -0.000049  -0.006143   0.002145   0.000082  -0.000182   0.000004
     9  H    0.000022  -0.000105  -0.000105  -0.000122  -0.000122  -0.000000
    10  H    0.000863  -0.069127   0.099084   0.028137   0.000259   0.000018
    11  H   -0.000049   0.002145  -0.006143  -0.000182   0.000082   0.000000
    12  C   -1.320266  -3.466169  -3.466169   1.377798   1.377797  -0.047964
    13  C    5.880394   0.643145   0.643145  -0.049264  -0.049264   0.014150
    14  C    0.643145  15.463332  -5.611584   0.165538  -2.216603   0.244119
    15  C    0.643145  -5.611584  15.463332  -2.216603   0.165538   0.071940
    16  C   -0.049264   0.165538  -2.216603   7.112221   0.306475  -0.024394
    17  C   -0.049264  -2.216603   0.165538   0.306475   7.112221  -0.071238
    18  H    0.014150   0.244119   0.071940  -0.024394  -0.071238   0.547914
    19  H    0.014150   0.071940   0.244119  -0.071238  -0.024394  -0.000190
    20  H   -0.006360  -0.007019  -0.027043   0.306588   0.012673   0.000022
    21  H   -0.006360  -0.027043  -0.007019   0.012673   0.306588  -0.005344
    22  H    0.287500   0.008527   0.008527  -0.005158  -0.005158  -0.000180
    23  Bq   0.000000   0.000000   0.000000   0.000000   0.000000   0.000000
    24  Bq   0.000000   0.000000   0.000000   0.000000   0.000000   0.000000
    25  Bq   0.000000   0.000000   0.000000   0.000000   0.000000   0.000000
    26  Bq   0.000000   0.000000   0.000000   0.000000   0.000000   0.000000
    27  Bq   0.000000   0.000000   0.000000   0.000000   0.000000   0.000000
              19         20         21         22         23         24
     1  H    0.000018   0.000000   0.000004  -0.000000   0.000000   0.000000
     2  C   -0.069127   0.002145  -0.006143  -0.000105   0.000000   0.000000
     3  C    0.028137  -0.000182   0.000082  -0.000122   0.000000   0.000000
     4  C    0.030027  -0.004828  -0.004828   0.002251   0.000000   0.000000
     5  C    0.000259   0.000082  -0.000182  -0.000122   0.000000   0.000000
     6  C    0.000863  -0.000049  -0.000049   0.000022   0.000000   0.000000
     7  C    0.099084  -0.006143   0.002145  -0.000105   0.000000   0.000000
     8  H    0.000000   0.000000   0.000000   0.000000   0.000000   0.000000
     9  H   -0.000000   0.000000   0.000000  -0.000000   0.000000   0.000000
    10  H    0.000476   0.000004   0.000000  -0.000000   0.000000   0.000000
    11  H    0.000004   0.000000   0.000000   0.000000   0.000000   0.000000
    12  C   -0.047964   0.020592   0.020592  -0.006202   0.000000   0.000000
    13  C    0.014150  -0.006360  -0.006360   0.287500   0.000000   0.000000
    14  C    0.071940  -0.007019  -0.027043   0.008527   0.000000   0.000000
    15  C    0.244119  -0.027043  -0.007019   0.008527   0.000000   0.000000
    16  C   -0.071238   0.306588   0.012673  -0.005158   0.000000   0.000000
    17  C   -0.024394   0.012673   0.306588  -0.005158   0.000000   0.000000
    18  H   -0.000190   0.000022  -0.005344  -0.000180   0.000000   0.000000
    19  H    0.547914  -0.005344   0.000022  -0.000180   0.000000   0.000000
    20  H   -0.005344   0.543115  -0.000195  -0.005473   0.000000   0.000000
    21  H    0.000022  -0.000195   0.543115  -0.005473   0.000000   0.000000
    22  H   -0.000180  -0.005473  -0.005473   0.545706   0.000000   0.000000
    23  Bq   0.000000   0.000000   0.000000   0.000000   0.000000   0.000000
    24  Bq   0.000000   0.000000   0.000000   0.000000   0.000000   0.000000
    25  Bq   0.000000   0.000000   0.000000   0.000000   0.000000   0.000000
    26  Bq   0.000000   0.000000   0.000000   0.000000   0.000000   0.000000
    27  Bq   0.000000   0.000000   0.000000   0.000000   0.000000   0.000000
              25         26         27
     1  H    0.000000   0.000000   0.000000
     2  C    0.000000   0.000000   0.000000
     3  C    0.000000   0.000000   0.000000
     4  C    0.000000   0.000000   0.000000
     5  C    0.000000   0.000000   0.000000
     6  C    0.000000   0.000000   0.000000
     7  C    0.000000   0.000000   0.000000
     8  H    0.000000   0.000000   0.000000
     9  H    0.000000   0.000000   0.000000
    10  H    0.000000   0.000000   0.000000
    11  H    0.000000   0.000000   0.000000
    12  C    0.000000   0.000000   0.000000
    13  C    0.000000   0.000000   0.000000
    14  C    0.000000   0.000000   0.000000
    15  C    0.000000   0.000000   0.000000
    16  C    0.000000   0.000000   0.000000
    17  C    0.000000   0.000000   0.000000
    18  H    0.000000   0.000000   0.000000
    19  H    0.000000   0.000000   0.000000
    20  H    0.000000   0.000000   0.000000
    21  H    0.000000   0.000000   0.000000
    22  H    0.000000   0.000000   0.000000
    23  Bq   0.000000   0.000000   0.000000
    24  Bq   0.000000   0.000000   0.000000
    25  Bq   0.000000   0.000000   0.000000
    26  Bq   0.000000   0.000000   0.000000
    27  Bq   0.000000   0.000000   0.000000
 Mulliken charges:
               1
     1  H    0.181424
     2  C   -0.313707
     3  C   -0.264128
     4  C    0.408498
     5  C   -0.264128
     6  C   -0.146253
     7  C   -0.313707
     8  H    0.177415
     9  H    0.175746
    10  H    0.181424
    11  H    0.177415
    12  C    0.408498
    13  C   -0.146253
    14  C   -0.313707
    15  C   -0.313707
    16  C   -0.264128
    17  C   -0.264128
    18  H    0.181424
    19  H    0.181424
    20  H    0.177415
    21  H    0.177415
    22  H    0.175746
    23  Bq   0.000000
    24  Bq   0.000000
    25  Bq   0.000000
    26  Bq   0.000000
    27  Bq   0.000000
 Sum of Mulliken charges =  -0.00000
 Mulliken charges with hydrogens summed into heavy atoms:
               1
     2  C   -0.132283
     3  C   -0.086713
     4  C    0.408498
     5  C   -0.086713
     6  C    0.029494
     7  C   -0.132283
    12  C    0.408498
    13  C    0.029494
    14  C   -0.132283
    15  C   -0.132283
    16  C   -0.086713
    17  C   -0.086713
    23  Bq   0.000000
    24  Bq   0.000000
    25  Bq   0.000000
    26  Bq   0.000000
    27  Bq   0.000000
 Electronic spatial extent (au):  <R**2>=           2278.3469
 Charge=             -0.0000 electrons
 Dipole moment (field-independent basis, Debye):
    X=              0.0000    Y=              0.0000    Z=              0.0000  Tot=              0.0000
 Quadrupole moment (field-independent basis, Debye-Ang):
   XX=            -65.4424   YY=            -74.5705   ZZ=            -63.0500
   XY=              0.0000   XZ=             -0.0000   YZ=              0.0000
 Traceless Quadrupole moment (field-independent basis, Debye-Ang):
   XX=              2.2452   YY=             -6.8829   ZZ=              4.6376
   XY=              0.0000   XZ=             -0.0000   YZ=              0.0000
 Octapole moment (field-independent basis, Debye-Ang**2):
  XXX=              0.0000  YYY=              0.0000  ZZZ=              0.0000  XYY=              0.0000
  XXY=              0.0000  XXZ=             -0.0000  XZZ=              0.0000  YZZ=              0.0000
  YYZ=              0.0000  XYZ=            -13.5976
 Hexadecapole moment (field-independent basis, Debye-Ang**3):
 XXXX=           -481.4394 YYYY=           -199.7340 ZZZZ=          -2322.1297 XXXY=              0.0000
 XXXZ=             -0.0000 YYYX=              0.0000 YYYZ=              0.0000 ZZZX=             -0.0000
 ZZZY=              0.0000 XXYY=           -108.3196 XXZZ=           -481.8679 YYZZ=           -492.7287
 XXYZ=              0.0000 YYXZ=             -0.0000 ZZXY=             -0.0000
 N-N= 6.036547483818D+02 E-N=-2.279388472295D+03  KE= 4.593481120318D+02
 Running external command "gaunbo6 R"
         input file       "/home/wangzhe/g16/Scratch/Gau-324785.EIn"
         output file      "/home/wangzhe/g16/Scratch/Gau-324785.EOu"
         message file     "/home/wangzhe/g16/Scratch/Gau-324785.EMs"
         fchk file        "/home/wangzhe/g16/Scratch/Gau-324785.EFC"
         mat. el file     "/home/wangzhe/g16/Scratch/Gau-324785.EUF"

 Writing WrtUnf unformatted file "/home/wangzhe/g16/Scratch/Gau-324785.EUF"
 Gaussian matrix elements                                         Version   2 NLab=11 Len12L=8 Len4L=8
 Write SHELL TO ATOM MAP                   from file     0 offset           0 length                  80 to matrix element file.
 Write SHELL TYPES                         from file     0 offset           0 length                  80 to matrix element file.
 Write NUMBER OF PRIMITIVES PER SHELL      from file     0 offset           0 length                  80 to matrix element file.
 Write PRIMITIVE EXPONENTS                 from file     0 offset           0 length                 184 to matrix element file.
 Write CONTRACTION COEFFICIENTS            from file     0 offset           0 length                 184 to matrix element file.
 Write P(S=P) CONTRACTION COEFFICIENTS     from file     0 offset           0 length                 184 to matrix element file.
 Write COORDINATES OF EACH SHELL           from file     0 offset           0 length                 240 to matrix element file.
 Write BONDS PER ATOM                      from file     0 offset           0 length                  27 to matrix element file.
 Write BONDED ATOMS                        from file     0 offset           0 length                  54 to matrix element file.
 Write BOND TYPES                          from file     0 offset           0 length                  54 to matrix element file.
 Write GAUSSIAN SCALARS                    from file   501 offset           0 to matrix element file.
 Write INTEGER ISO                         from file     0 offset           0 length                  27 to matrix element file.
 Write INTEGER SPIN                        from file     0 offset           0 length                  27 to matrix element file.
 Write REAL ZEFFECTIVE                     from file     0 offset           0 length                  27 to matrix element file.
 Write REAL GFACTOR                        from file     0 offset           0 length                  27 to matrix element file.
 Write REAL ZNUCLEAR                       from file     0 offset           0 length                  27 to matrix element file.
 Write MULLIKEN CHARGES                    from file     0 offset           0 length                  27 to matrix element file.
 Write NUCLEAR GRADIENT                    from file 10584 offset           0 length                  81 to matrix element file.
 Array NUCLEAR FORCE CONSTANTS              on  file 10585 does not exist.
 Write ELECTRIC DIPOLE MOMENT              from file     0 offset           0 length                   3 to matrix element file.
 Write NON-ADIABATIC COUPLING              from file 10810 offset           0 length                  81 to matrix element file.
 Write OVERLAP                             from file 10514 offset           0 length               30876 to matrix element file.
 Write CORE HAMILTONIAN ALPHA              from file 10515 offset           0 length               30876 to matrix element file.
 Write CORE HAMILTONIAN BETA               from file 10515 offset       30876 length               30876 to matrix element file.
 Write KINETIC ENERGY                      from file 10516 offset           0 length               30876 to matrix element file.
 Write ORTHOGONAL BASIS                    from file 10685 offset           0 length               61504 to matrix element file.
 Write DIPOLE INTEGRALS                    from file 10518 offset           0 length               92628 to matrix element file.
 Write DIP VEL INTEGRALS                   from file 10572 offset           0 length               92628 to matrix element file.
 Write R X DEL INTEGRALS                   from file 10572 offset       92628 length               92628 to matrix element file.
 Write ALPHA ORBITAL ENERGIES              from file     0 offset           0 length                 248 to matrix element file.
 Write ALPHA MO COEFFICIENTS               from file 10524 offset           0 length               61504 to matrix element file.
 Write ALPHA DENSITY MATRIX                from file     0 offset           0 length               30876 to matrix element file.
 Write ALPHA SCF DENSITY MATRIX            from file 10528 offset           0 length               30876 to matrix element file.
 Write ALPHA FOCK MATRIX                   from file 10536 offset           0 length               30876 to matrix element file.
 Write ALPHA DENSITY DERIVATIVES                                        from file 10592 offset           0 length               92628 to matrix element file.
 Write ALPHA MO DERIVATIVES                from file     0 offset           0 length               30504 to matrix element file.
 Write ALPHA SCF DENSITY                   from file     0 offset           0 length               30876 to matrix element file.
 Write TRANS MO COEFFICIENTS               from file 10548 offset           0 length               61504 to matrix element file.
 Compute GIAO d2H/dBdm
 ShPair: Thresh= 1.00D-12 NBox=     0 BxSize= 0.00D+00 RnKept= 1.74D+01
         NSMCal=                 3240 NSMKep=                2988
 Compute GIAO d2H/dBdm, IAt=     1 NDo=     9
 Compute GIAO d2H/dBdm, IAt=    10 NDo=     9
 Compute GIAO d2H/dBdm, IAt=    19 NDo=     9
 Write GIAO D2H/DBDM                       from file 19999 offset           0 length             7502868 to matrix element file.
 Compute GIAO L/R3
 Compute GIAO L/R3, IAt=     1 NDo=     9
 Compute GIAO L/R3, IAt=    10 NDo=     9
 Compute GIAO L/R3, IAt=    19 NDo=     9
 Write GIAO L/R3                           from file 19999 offset           0 length             2500956 to matrix element file.
 No 2e integrals to process.
 Perform NBO analysis...executing G16NBO...

 *********************************** NBO 7.0 ***********************************
             N A T U R A L   A T O M I C   O R B I T A L   A N D
          N A T U R A L   B O N D   O R B I T A L   A N A L Y S I S
 ****************************** Zhe Wang (I102139) *****************************
  (c) Copyright 1996-2021 Board of Regents of the University of Wisconsin System
      on behalf of the Theoretical Chemistry Institute.  All rights reserved.

          Cite this program [NBO 7.0.10 (8-Feb-2021)] as:

          NBO 7.0.  E. D. Glendening, J. K. Badenhoop, A. E. Reed,
          J. E. Carpenter, J. A. Bohmann, C. M. Morales, P. Karafiloglou,
          C. R. Landis, and F. Weinhold, Theoretical Chemistry Institute,
          University of Wisconsin, Madison, WI (2018)

       /NPA    / : Natural Population Analysis
       /NBO    / : Natural Bond Orbital Analysis
       /NBOSUM / : Print summary of the NBO analysis
       /NLMO   / : Form natural localized molecular orbitals
       /NRT    / : Natural Resonance Theory Analysis
       /NCS    / : Natural Chemical Shielding Analysis
                     including chemical shielding anisotropy
                     in the molecular Cartesian axes
                     NCS Analysis with canonical MOs
       /E2PERT / : Print perturbative analysis of NBO Fock matrix
       /DIPOLE / : Print NBO/NLMO dipole moment analysis
       /CMO    / : Print NBO analysis of canonical MOs
       /BNDIDX / : Print bond indices based on the NAO density matrix

 Filename set to /home/wangzhe/g16/Scratch/Gau-324785

 Job title: biphenyl
 Point group symmetry is close to D2 but analysis reverts to C1


 NATURAL POPULATIONS:  Natural atomic orbital occupancies

  NAO Atom No lang   Type(AO)    Occupancy      Energy
 -------------------------------------------------------
   1    H  1  s      Val( 1s)     0.75598       0.11681
   2    H  1  s      Ryd( 2s)     0.00096       0.67488

   3    C  2  s      Cor( 1s)     2.00000     -10.19180
   4    C  2  s      Val( 2s)     0.95410      -0.08127
   5    C  2  s      Ryd( 4s)     0.00065       1.18771
   6    C  2  s      Ryd( 3s)     0.00011       1.05202
   7    C  2  s      Ryd( 5s)     0.00005       3.66672
   8    C  2  px     Val( 2p)     1.12788      -0.04372
   9    C  2  px     Ryd( 4p)     0.00404       0.88839
  10    C  2  px     Ryd( 3p)     0.00031       0.30420
  11    C  2  py     Val( 2p)     1.03221      -0.09113
  12    C  2  py     Ryd( 4p)     0.00191       0.66180
  13    C  2  py     Ryd( 3p)     0.00057       0.31736
  14    C  2  pz     Val( 2p)     1.09611      -0.00860
  15    C  2  pz     Ryd( 4p)     0.00328       0.83977
  16    C  2  pz     Ryd( 3p)     0.00019       0.45103
  17    C  2  dxy    Ryd( 3d)     0.00069       2.11602
  18    C  2  dxz    Ryd( 3d)     0.00092       2.29651
  19    C  2  dyz    Ryd( 3d)     0.00057       2.00455
  20    C  2  dx2y2  Ryd( 3d)     0.00056       2.02210
  21    C  2  dz2    Ryd( 3d)     0.00077       2.43494

  22    C  3  s      Cor( 1s)     2.00000     -10.19307
  23    C  3  s      Val( 2s)     0.96329      -0.09148
  24    C  3  s      Ryd( 4s)     0.00065       1.25233
  25    C  3  s      Ryd( 3s)     0.00005       0.52524
  26    C  3  s      Ryd( 5s)     0.00004       4.03005
  27    C  3  px     Val( 2p)     1.13472      -0.04488
  28    C  3  px     Ryd( 4p)     0.00415       0.92720
  29    C  3  px     Ryd( 3p)     0.00027       0.29946
  30    C  3  py     Val( 2p)     1.02648      -0.09149
  31    C  3  py     Ryd( 4p)     0.00209       0.64057
  32    C  3  py     Ryd( 3p)     0.00048       0.30133
  33    C  3  pz     Val( 2p)     1.09295      -0.00550
  34    C  3  pz     Ryd( 4p)     0.00443       0.74696
  35    C  3  pz     Ryd( 3p)     0.00022       0.34660
  36    C  3  dxy    Ryd( 3d)     0.00069       2.08826
  37    C  3  dxz    Ryd( 3d)     0.00091       2.29945
  38    C  3  dyz    Ryd( 3d)     0.00058       2.00862
  39    C  3  dx2y2  Ryd( 3d)     0.00057       1.99654
  40    C  3  dz2    Ryd( 3d)     0.00077       2.41310

  41    C  4  s      Cor( 1s)     2.00000     -10.20169
  42    C  4  s      Val( 2s)     0.88328      -0.05539
  43    C  4  s      Ryd( 3s)     0.00067       0.94995
  44    C  4  s      Ryd( 4s)     0.00024       1.10215
  45    C  4  s      Ryd( 5s)     0.00003       4.04435
  46    C  4  px     Val( 2p)     1.07637      -0.02396
  47    C  4  px     Ryd( 4p)     0.00469       0.88910
  48    C  4  px     Ryd( 3p)     0.00027       0.48709
  49    C  4  py     Val( 2p)     1.01479      -0.08220
  50    C  4  py     Ryd( 4p)     0.00212       0.68585
  51    C  4  py     Ryd( 3p)     0.00025       0.38681
  52    C  4  pz     Val( 2p)     1.05892      -0.00400
  53    C  4  pz     Ryd( 4p)     0.00527       1.16457
  54    C  4  pz     Ryd( 3p)     0.00025       0.47585
  55    C  4  dxy    Ryd( 3d)     0.00056       2.21436
  56    C  4  dxz    Ryd( 3d)     0.00076       2.45787
  57    C  4  dyz    Ryd( 3d)     0.00062       2.08224
  58    C  4  dx2y2  Ryd( 3d)     0.00058       2.11639
  59    C  4  dz2    Ryd( 3d)     0.00073       2.41875

  60    C  5  s      Cor( 1s)     2.00000     -10.19307
  61    C  5  s      Val( 2s)     0.96329      -0.09148
  62    C  5  s      Ryd( 4s)     0.00065       1.25233
  63    C  5  s      Ryd( 3s)     0.00005       0.52524
  64    C  5  s      Ryd( 5s)     0.00004       4.03005
  65    C  5  px     Val( 2p)     1.13472      -0.04488
  66    C  5  px     Ryd( 4p)     0.00415       0.92720
  67    C  5  px     Ryd( 3p)     0.00027       0.29946
  68    C  5  py     Val( 2p)     1.02648      -0.09149
  69    C  5  py     Ryd( 4p)     0.00209       0.64057
  70    C  5  py     Ryd( 3p)     0.00048       0.30133
  71    C  5  pz     Val( 2p)     1.09295      -0.00550
  72    C  5  pz     Ryd( 4p)     0.00443       0.74696
  73    C  5  pz     Ryd( 3p)     0.00022       0.34660
  74    C  5  dxy    Ryd( 3d)     0.00069       2.08826
  75    C  5  dxz    Ryd( 3d)     0.00091       2.29945
  76    C  5  dyz    Ryd( 3d)     0.00058       2.00862
  77    C  5  dx2y2  Ryd( 3d)     0.00057       1.99654
  78    C  5  dz2    Ryd( 3d)     0.00077       2.41310

  79    C  6  s      Cor( 1s)     2.00000     -10.19223
  80    C  6  s      Val( 2s)     0.96477      -0.09230
  81    C  6  s      Ryd( 4s)     0.00059       1.28356
  82    C  6  s      Ryd( 3s)     0.00004       0.86507
  83    C  6  s      Ryd( 5s)     0.00003       3.52592
  84    C  6  px     Val( 2p)     1.04790      -0.01663
  85    C  6  px     Ryd( 4p)     0.00376       0.59919
  86    C  6  px     Ryd( 3p)     0.00027       0.36126
  87    C  6  py     Val( 2p)     1.01179      -0.08543
  88    C  6  py     Ryd( 4p)     0.00215       0.55261
  89    C  6  py     Ryd( 3p)     0.00051       0.32224
  90    C  6  pz     Val( 2p)     1.20187      -0.04026
  91    C  6  pz     Ryd( 4p)     0.00463       1.12971
  92    C  6  pz     Ryd( 3p)     0.00035       0.27189
  93    C  6  dxy    Ryd( 3d)     0.00059       2.20729
  94    C  6  dxz    Ryd( 3d)     0.00075       2.28942
  95    C  6  dyz    Ryd( 3d)     0.00044       1.91056
  96    C  6  dx2y2  Ryd( 3d)     0.00056       2.11812
  97    C  6  dz2    Ryd( 3d)     0.00118       2.26043

  98    C  7  s      Cor( 1s)     2.00000     -10.19180
  99    C  7  s      Val( 2s)     0.95410      -0.08127
 100    C  7  s      Ryd( 4s)     0.00065       1.18771
 101    C  7  s      Ryd( 3s)     0.00011       1.05201
 102    C  7  s      Ryd( 5s)     0.00005       3.66674
 103    C  7  px     Val( 2p)     1.12788      -0.04372
 104    C  7  px     Ryd( 4p)     0.00404       0.88839
 105    C  7  px     Ryd( 3p)     0.00031       0.30420
 106    C  7  py     Val( 2p)     1.03221      -0.09113
 107    C  7  py     Ryd( 4p)     0.00191       0.66180
 108    C  7  py     Ryd( 3p)     0.00057       0.31736
 109    C  7  pz     Val( 2p)     1.09611      -0.00860
 110    C  7  pz     Ryd( 4p)     0.00328       0.83977
 111    C  7  pz     Ryd( 3p)     0.00019       0.45103
 112    C  7  dxy    Ryd( 3d)     0.00069       2.11602
 113    C  7  dxz    Ryd( 3d)     0.00092       2.29651
 114    C  7  dyz    Ryd( 3d)     0.00057       2.00455
 115    C  7  dx2y2  Ryd( 3d)     0.00056       2.02210
 116    C  7  dz2    Ryd( 3d)     0.00077       2.43494

 117    H  8  s      Val( 1s)     0.75799       0.11627
 118    H  8  s      Ryd( 2s)     0.00091       0.63508

 119    H  9  s      Val( 1s)     0.75844       0.11703
 120    H  9  s      Ryd( 2s)     0.00081       0.62967

 121    H 10  s      Val( 1s)     0.75598       0.11681
 122    H 10  s      Ryd( 2s)     0.00096       0.67488

 123    H 11  s      Val( 1s)     0.75799       0.11627
 124    H 11  s      Ryd( 2s)     0.00091       0.63508

 125    C 12  s      Cor( 1s)     2.00000     -10.20169
 126    C 12  s      Val( 2s)     0.88328      -0.05539
 127    C 12  s      Ryd( 3s)     0.00067       0.94995
 128    C 12  s      Ryd( 4s)     0.00024       1.10216
 129    C 12  s      Ryd( 5s)     0.00003       4.04435
 130    C 12  px     Val( 2p)     1.07637      -0.02396
 131    C 12  px     Ryd( 4p)     0.00469       0.88910
 132    C 12  px     Ryd( 3p)     0.00027       0.48709
 133    C 12  py     Val( 2p)     1.01479      -0.08220
 134    C 12  py     Ryd( 4p)     0.00212       0.68585
 135    C 12  py     Ryd( 3p)     0.00025       0.38681
 136    C 12  pz     Val( 2p)     1.05892      -0.00400
 137    C 12  pz     Ryd( 4p)     0.00527       1.16457
 138    C 12  pz     Ryd( 3p)     0.00025       0.47585
 139    C 12  dxy    Ryd( 3d)     0.00056       2.21436
 140    C 12  dxz    Ryd( 3d)     0.00076       2.45787
 141    C 12  dyz    Ryd( 3d)     0.00062       2.08224
 142    C 12  dx2y2  Ryd( 3d)     0.00058       2.11639
 143    C 12  dz2    Ryd( 3d)     0.00073       2.41875

 144    C 13  s      Cor( 1s)     2.00000     -10.19223
 145    C 13  s      Val( 2s)     0.96477      -0.09230
 146    C 13  s      Ryd( 4s)     0.00059       1.28356
 147    C 13  s      Ryd( 3s)     0.00004       0.86513
 148    C 13  s      Ryd( 5s)     0.00003       3.52587
 149    C 13  px     Val( 2p)     1.04790      -0.01663
 150    C 13  px     Ryd( 4p)     0.00376       0.59919
 151    C 13  px     Ryd( 3p)     0.00027       0.36126
 152    C 13  py     Val( 2p)     1.01179      -0.08543
 153    C 13  py     Ryd( 4p)     0.00215       0.55261
 154    C 13  py     Ryd( 3p)     0.00051       0.32224
 155    C 13  pz     Val( 2p)     1.20187      -0.04026
 156    C 13  pz     Ryd( 4p)     0.00463       1.12971
 157    C 13  pz     Ryd( 3p)     0.00035       0.27189
 158    C 13  dxy    Ryd( 3d)     0.00059       2.20729
 159    C 13  dxz    Ryd( 3d)     0.00075       2.28942
 160    C 13  dyz    Ryd( 3d)     0.00044       1.91056
 161    C 13  dx2y2  Ryd( 3d)     0.00056       2.11812
 162    C 13  dz2    Ryd( 3d)     0.00118       2.26043

 163    C 14  s      Cor( 1s)     2.00000     -10.19180
 164    C 14  s      Val( 2s)     0.95410      -0.08127
 165    C 14  s      Ryd( 4s)     0.00065       1.18771
 166    C 14  s      Ryd( 3s)     0.00011       1.05202
 167    C 14  s      Ryd( 5s)     0.00005       3.66673
 168    C 14  px     Val( 2p)     1.12788      -0.04372
 169    C 14  px     Ryd( 4p)     0.00404       0.88839
 170    C 14  px     Ryd( 3p)     0.00031       0.30420
 171    C 14  py     Val( 2p)     1.03221      -0.09113
 172    C 14  py     Ryd( 4p)     0.00191       0.66180
 173    C 14  py     Ryd( 3p)     0.00057       0.31736
 174    C 14  pz     Val( 2p)     1.09611      -0.00860
 175    C 14  pz     Ryd( 4p)     0.00328       0.83977
 176    C 14  pz     Ryd( 3p)     0.00019       0.45103
 177    C 14  dxy    Ryd( 3d)     0.00069       2.11602
 178    C 14  dxz    Ryd( 3d)     0.00092       2.29651
 179    C 14  dyz    Ryd( 3d)     0.00057       2.00455
 180    C 14  dx2y2  Ryd( 3d)     0.00056       2.02210
 181    C 14  dz2    Ryd( 3d)     0.00077       2.43494

 182    C 15  s      Cor( 1s)     2.00000     -10.19180
 183    C 15  s      Val( 2s)     0.95410      -0.08127
 184    C 15  s      Ryd( 4s)     0.00065       1.18771
 185    C 15  s      Ryd( 3s)     0.00011       1.05202
 186    C 15  s      Ryd( 5s)     0.00005       3.66673
 187    C 15  px     Val( 2p)     1.12788      -0.04372
 188    C 15  px     Ryd( 4p)     0.00404       0.88839
 189    C 15  px     Ryd( 3p)     0.00031       0.30420
 190    C 15  py     Val( 2p)     1.03221      -0.09113
 191    C 15  py     Ryd( 4p)     0.00191       0.66180
 192    C 15  py     Ryd( 3p)     0.00057       0.31736
 193    C 15  pz     Val( 2p)     1.09611      -0.00860
 194    C 15  pz     Ryd( 4p)     0.00328       0.83977
 195    C 15  pz     Ryd( 3p)     0.00019       0.45103
 196    C 15  dxy    Ryd( 3d)     0.00069       2.11602
 197    C 15  dxz    Ryd( 3d)     0.00092       2.29651
 198    C 15  dyz    Ryd( 3d)     0.00057       2.00455
 199    C 15  dx2y2  Ryd( 3d)     0.00056       2.02210
 200    C 15  dz2    Ryd( 3d)     0.00077       2.43494

 201    C 16  s      Cor( 1s)     2.00000     -10.19307
 202    C 16  s      Val( 2s)     0.96329      -0.09148
 203    C 16  s      Ryd( 4s)     0.00065       1.25233
 204    C 16  s      Ryd( 3s)     0.00005       0.52524
 205    C 16  s      Ryd( 5s)     0.00004       4.03005
 206    C 16  px     Val( 2p)     1.13472      -0.04488
 207    C 16  px     Ryd( 4p)     0.00415       0.92720
 208    C 16  px     Ryd( 3p)     0.00027       0.29946
 209    C 16  py     Val( 2p)     1.02648      -0.09149
 210    C 16  py     Ryd( 4p)     0.00209       0.64057
 211    C 16  py     Ryd( 3p)     0.00048       0.30133
 212    C 16  pz     Val( 2p)     1.09295      -0.00550
 213    C 16  pz     Ryd( 4p)     0.00443       0.74696
 214    C 16  pz     Ryd( 3p)     0.00022       0.34660
 215    C 16  dxy    Ryd( 3d)     0.00069       2.08826
 216    C 16  dxz    Ryd( 3d)     0.00091       2.29945
 217    C 16  dyz    Ryd( 3d)     0.00058       2.00862
 218    C 16  dx2y2  Ryd( 3d)     0.00057       1.99654
 219    C 16  dz2    Ryd( 3d)     0.00077       2.41310

 220    C 17  s      Cor( 1s)     2.00000     -10.19307
 221    C 17  s      Val( 2s)     0.96329      -0.09148
 222    C 17  s      Ryd( 4s)     0.00065       1.25233
 223    C 17  s      Ryd( 3s)     0.00005       0.52525
 224    C 17  s      Ryd( 5s)     0.00004       4.03005
 225    C 17  px     Val( 2p)     1.13472      -0.04488
 226    C 17  px     Ryd( 4p)     0.00415       0.92720
 227    C 17  px     Ryd( 3p)     0.00027       0.29946
 228    C 17  py     Val( 2p)     1.02648      -0.09149
 229    C 17  py     Ryd( 4p)     0.00209       0.64057
 230    C 17  py     Ryd( 3p)     0.00048       0.30133
 231    C 17  pz     Val( 2p)     1.09295      -0.00550
 232    C 17  pz     Ryd( 4p)     0.00443       0.74696
 233    C 17  pz     Ryd( 3p)     0.00022       0.34660
 234    C 17  dxy    Ryd( 3d)     0.00069       2.08826
 235    C 17  dxz    Ryd( 3d)     0.00091       2.29945
 236    C 17  dyz    Ryd( 3d)     0.00058       2.00862
 237    C 17  dx2y2  Ryd( 3d)     0.00057       1.99654
 238    C 17  dz2    Ryd( 3d)     0.00077       2.41310

 239    H 18  s      Val( 1s)     0.75598       0.11681
 240    H 18  s      Ryd( 2s)     0.00096       0.67488

 241    H 19  s      Val( 1s)     0.75598       0.11681
 242    H 19  s      Ryd( 2s)     0.00096       0.67488

 243    H 20  s      Val( 1s)     0.75799       0.11627
 244    H 20  s      Ryd( 2s)     0.00091       0.63508

 245    H 21  s      Val( 1s)     0.75799       0.11627
 246    H 21  s      Ryd( 2s)     0.00091       0.63508

 247    H 22  s      Val( 1s)     0.75844       0.11703
 248    H 22  s      Ryd( 2s)     0.00081       0.62967


 Summary of Natural Population Analysis:

                                     Natural Population
             Natural    ---------------------------------------------
  Atom No    Charge        Core      Valence    Rydberg      Total
 --------------------------------------------------------------------
    H  1    0.24306      0.00000     0.75598    0.00096     0.75694
    C  2   -0.22491      2.00000     4.21030    0.01462     6.22491
    C  3   -0.23333      2.00000     4.21744    0.01590     6.23333
    C  4   -0.05040      2.00000     4.03337    0.01704     6.05040
    C  5   -0.23333      2.00000     4.21744    0.01590     6.23333
    C  6   -0.24217      2.00000     4.22632    0.01585     6.24217
    C  7   -0.22491      2.00000     4.21030    0.01462     6.22491
    H  8    0.24110      0.00000     0.75799    0.00091     0.75890
    H  9    0.24075      0.00000     0.75844    0.00081     0.75925
    H 10    0.24306      0.00000     0.75598    0.00096     0.75694
    H 11    0.24110      0.00000     0.75799    0.00091     0.75890
    C 12   -0.05040      2.00000     4.03337    0.01704     6.05040
    C 13   -0.24217      2.00000     4.22632    0.01585     6.24217
    C 14   -0.22491      2.00000     4.21030    0.01462     6.22491
    C 15   -0.22491      2.00000     4.21030    0.01462     6.22491
    C 16   -0.23333      2.00000     4.21744    0.01590     6.23333
    C 17   -0.23333      2.00000     4.21744    0.01590     6.23333
    H 18    0.24306      0.00000     0.75598    0.00096     0.75694
    H 19    0.24306      0.00000     0.75598    0.00096     0.75694
    H 20    0.24110      0.00000     0.75799    0.00091     0.75890
    H 21    0.24110      0.00000     0.75799    0.00091     0.75890
    H 22    0.24075      0.00000     0.75844    0.00081     0.75925
   gh 23    0.00000      0.00000     0.00000    0.00000     0.00000
   gh 24    0.00000      0.00000     0.00000    0.00000     0.00000
   gh 25    0.00000      0.00000     0.00000    0.00000     0.00000
   gh 26    0.00000      0.00000     0.00000    0.00000     0.00000
   gh 27    0.00000      0.00000     0.00000    0.00000     0.00000
 ====================================================================
 * Total *  0.00000     23.99995    57.80305    0.19700    82.00000

                                 Natural Population
 ---------------------------------------------------------
   Core                      23.99995 ( 99.9998% of   24)
   Valence                   57.80305 ( 99.6604% of   58)
   Natural Minimal Basis     81.80300 ( 99.7598% of   82)
   Natural Rydberg Basis      0.19700 (  0.2402% of   82)
 ---------------------------------------------------------

    Atom No         Natural Electron Configuration
 ----------------------------------------------------------------------------
      H  1            1s( 0.76)
      C  2      [core]2s( 0.95)2p( 3.26)4p( 0.01)
      C  3      [core]2s( 0.96)2p( 3.25)4p( 0.01)
      C  4      [core]2s( 0.88)2p( 3.15)4p( 0.01)
      C  5      [core]2s( 0.96)2p( 3.25)4p( 0.01)
      C  6      [core]2s( 0.96)2p( 3.26)4p( 0.01)
      C  7      [core]2s( 0.95)2p( 3.26)4p( 0.01)
      H  8            1s( 0.76)
      H  9            1s( 0.76)
      H 10            1s( 0.76)
      H 11            1s( 0.76)
      C 12      [core]2s( 0.88)2p( 3.15)4p( 0.01)
      C 13      [core]2s( 0.96)2p( 3.26)4p( 0.01)
      C 14      [core]2s( 0.95)2p( 3.26)4p( 0.01)
      C 15      [core]2s( 0.95)2p( 3.26)4p( 0.01)
      C 16      [core]2s( 0.96)2p( 3.25)4p( 0.01)
      C 17      [core]2s( 0.96)2p( 3.25)4p( 0.01)
      H 18            1s( 0.76)
      H 19            1s( 0.76)
      H 20            1s( 0.76)
      H 21            1s( 0.76)
      H 22            1s( 0.76)


 Wiberg bond index matrix in the NAO basis:

     Atom    1       2       3       4       5       6       7       8       9
     ---- ------  ------  ------  ------  ------  ------  ------  ------  ------
   1.  H  0.0000  0.9103  0.0004  0.0034  0.0037  0.0089  0.0098  0.0019  0.0002
   2.  C  0.9103  0.0000  0.1109  1.3905  1.4410  0.0111  0.0117  0.0035  0.0089
   3.  C  0.0004  0.1109  0.0000  0.0117  0.0110  1.4306  1.4410  0.0089  0.0034
   4.  C  0.0034  1.3905  0.0117  0.0000  0.0117  0.1067  1.3905  0.0085  0.0003
   5.  C  0.0037  1.4410  0.0110  0.0117  0.0000  1.4306  0.1109  0.9132  0.0034
   6.  C  0.0089  0.0111  1.4306  0.1067  1.4306  0.0000  0.0111  0.0035  0.9136
   7.  C  0.0098  0.0117  1.4410  1.3905  0.1109  0.0111  0.0000  0.0004  0.0089
   8.  H  0.0019  0.0035  0.0089  0.0085  0.9132  0.0035  0.0004  0.0000  0.0018
   9.  H  0.0002  0.0089  0.0034  0.0003  0.0034  0.9136  0.0089  0.0018  0.0000
  10.  H  0.0003  0.0098  0.0037  0.0034  0.0004  0.0089  0.9103  0.0006  0.0002
  11.  H  0.0006  0.0004  0.9132  0.0085  0.0089  0.0035  0.0035  0.0003  0.0018
  12.  C  0.0016  0.0091  0.0085  1.0269  0.0085  0.0008  0.0091  0.0002  0.0005
  13.  C  0.0000  0.0059  0.0003  0.0008  0.0003  0.0038  0.0059  0.0001  0.0000
  14.  C  0.0005  0.0133  0.0006  0.0091  0.0007  0.0059  0.0140  0.0001  0.0000
  15.  C  0.0004  0.0140  0.0007  0.0091  0.0006  0.0059  0.0133  0.0003  0.0000
  16.  C  0.0001  0.0006  0.0004  0.0085  0.0003  0.0003  0.0007  0.0000  0.0000
  17.  C  0.0000  0.0007  0.0003  0.0085  0.0004  0.0003  0.0006  0.0000  0.0000
  18.  H  0.0002  0.0005  0.0001  0.0016  0.0000  0.0000  0.0004  0.0000  0.0000
  19.  H  0.0000  0.0004  0.0000  0.0016  0.0001  0.0000  0.0005  0.0000  0.0000
  20.  H  0.0000  0.0003  0.0000  0.0002  0.0000  0.0001  0.0001  0.0000  0.0000
  21.  H  0.0000  0.0001  0.0000  0.0002  0.0000  0.0001  0.0003  0.0000  0.0000
  22.  H  0.0000  0.0000  0.0000  0.0005  0.0000  0.0000  0.0000  0.0000  0.0000
  23. gh  0.0000  0.0000  0.0000  0.0000  0.0000  0.0000  0.0000  0.0000  0.0000
  24. gh  0.0000  0.0000  0.0000  0.0000  0.0000  0.0000  0.0000  0.0000  0.0000
  25. gh  0.0000  0.0000  0.0000  0.0000  0.0000  0.0000  0.0000  0.0000  0.0000
  26. gh  0.0000  0.0000  0.0000  0.0000  0.0000  0.0000  0.0000  0.0000  0.0000
  27. gh  0.0000  0.0000  0.0000  0.0000  0.0000  0.0000  0.0000  0.0000  0.0000

     Atom   10      11      12      13      14      15      16      17      18
     ---- ------  ------  ------  ------  ------  ------  ------  ------  ------
   1.  H  0.0003  0.0006  0.0016  0.0000  0.0005  0.0004  0.0001  0.0000  0.0002
   2.  C  0.0098  0.0004  0.0091  0.0059  0.0133  0.0140  0.0006  0.0007  0.0005
   3.  C  0.0037  0.9132  0.0085  0.0003  0.0006  0.0007  0.0004  0.0003  0.0001
   4.  C  0.0034  0.0085  1.0269  0.0008  0.0091  0.0091  0.0085  0.0085  0.0016
   5.  C  0.0004  0.0089  0.0085  0.0003  0.0007  0.0006  0.0003  0.0004  0.0000
   6.  C  0.0089  0.0035  0.0008  0.0038  0.0059  0.0059  0.0003  0.0003  0.0000
   7.  C  0.9103  0.0035  0.0091  0.0059  0.0140  0.0133  0.0007  0.0006  0.0004
   8.  H  0.0006  0.0003  0.0002  0.0001  0.0001  0.0003  0.0000  0.0000  0.0000
   9.  H  0.0002  0.0018  0.0005  0.0000  0.0000  0.0000  0.0000  0.0000  0.0000
  10.  H  0.0000  0.0019  0.0016  0.0000  0.0004  0.0005  0.0000  0.0001  0.0000
  11.  H  0.0019  0.0000  0.0002  0.0001  0.0003  0.0001  0.0000  0.0000  0.0000
  12.  C  0.0016  0.0002  0.0000  0.1067  1.3905  1.3905  0.0117  0.0117  0.0034
  13.  C  0.0000  0.0001  0.1067  0.0000  0.0111  0.0111  1.4306  1.4306  0.0089
  14.  C  0.0004  0.0003  1.3905  0.0111  0.0000  0.0117  0.1109  1.4410  0.9103
  15.  C  0.0005  0.0001  1.3905  0.0111  0.0117  0.0000  1.4410  0.1109  0.0098
  16.  C  0.0000  0.0000  0.0117  1.4306  0.1109  1.4410  0.0000  0.0110  0.0004
  17.  C  0.0001  0.0000  0.0117  1.4306  1.4410  0.1109  0.0110  0.0000  0.0037
  18.  H  0.0000  0.0000  0.0034  0.0089  0.9103  0.0098  0.0004  0.0037  0.0000
  19.  H  0.0002  0.0000  0.0034  0.0089  0.0098  0.9103  0.0037  0.0004  0.0003
  20.  H  0.0000  0.0000  0.0085  0.0035  0.0004  0.0035  0.9132  0.0089  0.0006
  21.  H  0.0000  0.0000  0.0085  0.0035  0.0035  0.0004  0.0089  0.9132  0.0019
  22.  H  0.0000  0.0000  0.0003  0.9136  0.0089  0.0089  0.0034  0.0034  0.0002
  23. gh  0.0000  0.0000  0.0000  0.0000  0.0000  0.0000  0.0000  0.0000  0.0000
  24. gh  0.0000  0.0000  0.0000  0.0000  0.0000  0.0000  0.0000  0.0000  0.0000
  25. gh  0.0000  0.0000  0.0000  0.0000  0.0000  0.0000  0.0000  0.0000  0.0000
  26. gh  0.0000  0.0000  0.0000  0.0000  0.0000  0.0000  0.0000  0.0000  0.0000
  27. gh  0.0000  0.0000  0.0000  0.0000  0.0000  0.0000  0.0000  0.0000  0.0000

     Atom   19      20      21      22      23      24      25      26      27
     ---- ------  ------  ------  ------  ------  ------  ------  ------  ------
   1.  H  0.0000  0.0000  0.0000  0.0000  0.0000  0.0000  0.0000  0.0000  0.0000
   2.  C  0.0004  0.0003  0.0001  0.0000  0.0000  0.0000  0.0000  0.0000  0.0000
   3.  C  0.0000  0.0000  0.0000  0.0000  0.0000  0.0000  0.0000  0.0000  0.0000
   4.  C  0.0016  0.0002  0.0002  0.0005  0.0000  0.0000  0.0000  0.0000  0.0000
   5.  C  0.0001  0.0000  0.0000  0.0000  0.0000  0.0000  0.0000  0.0000  0.0000
   6.  C  0.0000  0.0001  0.0001  0.0000  0.0000  0.0000  0.0000  0.0000  0.0000
   7.  C  0.0005  0.0001  0.0003  0.0000  0.0000  0.0000  0.0000  0.0000  0.0000
   8.  H  0.0000  0.0000  0.0000  0.0000  0.0000  0.0000  0.0000  0.0000  0.0000
   9.  H  0.0000  0.0000  0.0000  0.0000  0.0000  0.0000  0.0000  0.0000  0.0000
  10.  H  0.0002  0.0000  0.0000  0.0000  0.0000  0.0000  0.0000  0.0000  0.0000
  11.  H  0.0000  0.0000  0.0000  0.0000  0.0000  0.0000  0.0000  0.0000  0.0000
  12.  C  0.0034  0.0085  0.0085  0.0003  0.0000  0.0000  0.0000  0.0000  0.0000
  13.  C  0.0089  0.0035  0.0035  0.9136  0.0000  0.0000  0.0000  0.0000  0.0000
  14.  C  0.0098  0.0004  0.0035  0.0089  0.0000  0.0000  0.0000  0.0000  0.0000
  15.  C  0.9103  0.0035  0.0004  0.0089  0.0000  0.0000  0.0000  0.0000  0.0000
  16.  C  0.0037  0.9132  0.0089  0.0034  0.0000  0.0000  0.0000  0.0000  0.0000
  17.  C  0.0004  0.0089  0.9132  0.0034  0.0000  0.0000  0.0000  0.0000  0.0000
  18.  H  0.0003  0.0006  0.0019  0.0002  0.0000  0.0000  0.0000  0.0000  0.0000
  19.  H  0.0000  0.0019  0.0006  0.0002  0.0000  0.0000  0.0000  0.0000  0.0000
  20.  H  0.0019  0.0000  0.0003  0.0018  0.0000  0.0000  0.0000  0.0000  0.0000
  21.  H  0.0006  0.0003  0.0000  0.0018  0.0000  0.0000  0.0000  0.0000  0.0000
  22.  H  0.0002  0.0018  0.0018  0.0000  0.0000  0.0000  0.0000  0.0000  0.0000
  23. gh  0.0000  0.0000  0.0000  0.0000  0.0000  0.0000  0.0000  0.0000  0.0000
  24. gh  0.0000  0.0000  0.0000  0.0000  0.0000  0.0000  0.0000  0.0000  0.0000
  25. gh  0.0000  0.0000  0.0000  0.0000  0.0000  0.0000  0.0000  0.0000  0.0000
  26. gh  0.0000  0.0000  0.0000  0.0000  0.0000  0.0000  0.0000  0.0000  0.0000
  27. gh  0.0000  0.0000  0.0000  0.0000  0.0000  0.0000  0.0000  0.0000  0.0000


 Wiberg bond index, Totals by atom:

     Atom    1
     ---- ------
   1.  H  0.9424
   2.  C  3.9428
   3.  C  3.9458
   4.  C  4.0022
   5.  C  3.9458
   6.  C  3.9455
   7.  C  3.9428
   8.  H  0.9433
   9.  H  0.9433
  10.  H  0.9424
  11.  H  0.9433
  12.  C  4.0022
  13.  C  3.9455
  14.  C  3.9428
  15.  C  3.9428
  16.  C  3.9458
  17.  C  3.9458
  18.  H  0.9424
  19.  H  0.9424
  20.  H  0.9433
  21.  H  0.9433
  22.  H  0.9433
  23. gh  0.0000
  24. gh  0.0000
  25. gh  0.0000
  26. gh  0.0000
  27. gh  0.0000


 NBI: Natural Binding Index (NCU strength parameters)

     Atom    1       2       3       4       5       6       7       8       9
     ---- ------  ------  ------  ------  ------  ------  ------  ------  ------
   1.  H  0.0000  0.9541  0.0201  0.0581  0.0610  0.0941  0.0989  0.0434  0.0158
   2.  C  0.9541  0.0000  0.3330  1.1792  1.2004  0.1053  0.1082  0.0588  0.0942
   3.  C  0.0201  0.3330  0.0000  0.1082  0.1050  1.1961  1.2004  0.0946  0.0584
   4.  C  0.0581  1.1792  0.1082  0.0000  0.1082  0.3267  1.1792  0.0922  0.0183
   5.  C  0.0610  1.2004  0.1050  0.1082  0.0000  1.1961  0.3330  0.9556  0.0584
   6.  C  0.0941  0.1053  1.1961  0.3267  1.1961  0.0000  0.1053  0.0591  0.9558
   7.  C  0.0989  0.1082  1.2004  1.1792  0.3330  0.1053  0.0000  0.0192  0.0942
   8.  H  0.0434  0.0588  0.0946  0.0922  0.9556  0.0591  0.0192  0.0000  0.0429
   9.  H  0.0158  0.0942  0.0584  0.0183  0.0584  0.9558  0.0942  0.0429  0.0000
  10.  H  0.0172  0.0989  0.0610  0.0581  0.0201  0.0941  0.9541  0.0236  0.0158
  11.  H  0.0236  0.0192  0.9556  0.0922  0.0946  0.0591  0.0588  0.0165  0.0429
  12.  C  0.0403  0.0953  0.0922  1.0134  0.0922  0.0274  0.0953  0.0147  0.0217
  13.  C  0.0057  0.0765  0.0170  0.0274  0.0170  0.0618  0.0765  0.0083  0.0017
  14.  C  0.0228  0.1153  0.0241  0.0953  0.0273  0.0765  0.1185  0.0105  0.0037
  15.  C  0.0192  0.1185  0.0273  0.0953  0.0241  0.0765  0.1153  0.0169  0.0037
  16.  C  0.0096  0.0241  0.0197  0.0922  0.0162  0.0170  0.0273  0.0046  0.0047
  17.  C  0.0063  0.0273  0.0162  0.0922  0.0197  0.0170  0.0241  0.0024  0.0047
  18.  H  0.0147  0.0228  0.0096  0.0403  0.0063  0.0057  0.0192  0.0046  0.0006
  19.  H  0.0061  0.0192  0.0063  0.0403  0.0096  0.0057  0.0228  0.0055  0.0006
  20.  H  0.0055  0.0169  0.0024  0.0147  0.0046  0.0083  0.0105  0.0038  0.0005
  21.  H  0.0046  0.0105  0.0046  0.0147  0.0024  0.0083  0.0169  0.0011  0.0005
  22.  H  0.0006  0.0037  0.0047  0.0217  0.0047  0.0017  0.0037  0.0005  0.0003
  23. gh  0.0000  0.0000  0.0000  0.0000  0.0000  0.0000  0.0000  0.0000  0.0000
  24. gh  0.0000  0.0000  0.0000  0.0000  0.0000  0.0000  0.0000  0.0000  0.0000
  25. gh  0.0000  0.0000  0.0000  0.0000  0.0000  0.0000  0.0000  0.0000  0.0000
  26. gh  0.0000  0.0000  0.0000  0.0000  0.0000  0.0000  0.0000  0.0000  0.0000
  27. gh  0.0000  0.0000  0.0000  0.0000  0.0000  0.0000  0.0000  0.0000  0.0000

     Atom   10      11      12      13      14      15      16      17      18
     ---- ------  ------  ------  ------  ------  ------  ------  ------  ------
   1.  H  0.0172  0.0236  0.0403  0.0057  0.0228  0.0192  0.0096  0.0063  0.0147
   2.  C  0.0989  0.0192  0.0953  0.0765  0.1153  0.1185  0.0241  0.0273  0.0228
   3.  C  0.0610  0.9556  0.0922  0.0170  0.0241  0.0273  0.0197  0.0162  0.0096
   4.  C  0.0581  0.0922  1.0134  0.0274  0.0953  0.0953  0.0922  0.0922  0.0403
   5.  C  0.0201  0.0946  0.0922  0.0170  0.0273  0.0241  0.0162  0.0197  0.0063
   6.  C  0.0941  0.0591  0.0274  0.0618  0.0765  0.0765  0.0170  0.0170  0.0057
   7.  C  0.9541  0.0588  0.0953  0.0765  0.1185  0.1153  0.0273  0.0241  0.0192
   8.  H  0.0236  0.0165  0.0147  0.0083  0.0105  0.0169  0.0046  0.0024  0.0046
   9.  H  0.0158  0.0429  0.0217  0.0017  0.0037  0.0037  0.0047  0.0047  0.0006
  10.  H  0.0000  0.0434  0.0403  0.0057  0.0192  0.0228  0.0063  0.0096  0.0061
  11.  H  0.0434  0.0000  0.0147  0.0083  0.0169  0.0105  0.0024  0.0046  0.0055
  12.  C  0.0403  0.0147  0.0000  0.3267  1.1792  1.1792  0.1082  0.1082  0.0581
  13.  C  0.0057  0.0083  0.3267  0.0000  0.1053  0.1053  1.1961  1.1961  0.0941
  14.  C  0.0192  0.0169  1.1792  0.1053  0.0000  0.1082  0.3330  1.2004  0.9541
  15.  C  0.0228  0.0105  1.1792  0.1053  0.1082  0.0000  1.2004  0.3330  0.0989
  16.  C  0.0063  0.0024  0.1082  1.1961  0.3330  1.2004  0.0000  0.1050  0.0201
  17.  C  0.0096  0.0046  0.1082  1.1961  1.2004  0.3330  0.1050  0.0000  0.0610
  18.  H  0.0061  0.0055  0.0581  0.0941  0.9541  0.0989  0.0201  0.0610  0.0000
  19.  H  0.0147  0.0046  0.0581  0.0941  0.0989  0.9541  0.0610  0.0201  0.0172
  20.  H  0.0046  0.0011  0.0922  0.0591  0.0192  0.0588  0.9556  0.0946  0.0236
  21.  H  0.0055  0.0038  0.0922  0.0591  0.0588  0.0192  0.0946  0.9556  0.0434
  22.  H  0.0006  0.0005  0.0183  0.9558  0.0942  0.0942  0.0584  0.0584  0.0158
  23. gh  0.0000  0.0000  0.0000  0.0000  0.0000  0.0000  0.0000  0.0000  0.0000
  24. gh  0.0000  0.0000  0.0000  0.0000  0.0000  0.0000  0.0000  0.0000  0.0000
  25. gh  0.0000  0.0000  0.0000  0.0000  0.0000  0.0000  0.0000  0.0000  0.0000
  26. gh  0.0000  0.0000  0.0000  0.0000  0.0000  0.0000  0.0000  0.0000  0.0000
  27. gh  0.0000  0.0000  0.0000  0.0000  0.0000  0.0000  0.0000  0.0000  0.0000

     Atom   19      20      21      22      23      24      25      26      27
     ---- ------  ------  ------  ------  ------  ------  ------  ------  ------
[...]
          i 0.0000 0.0000 0.0000 0.0000 0.0000 0.0000 0.0000 0.0000 0.0000

  22.  H  t 0.0000 0.0000 0.0000 0.0000 0.0000 0.0000 0.0000 0.0000 0.0000
          c 0.0000 0.0000 0.0000 0.0000 0.0000 0.0000 0.0000 0.0000 0.0000
          i 0.0000 0.0000 0.0000 0.0000 0.0000 0.0000 0.0000 0.0000 0.0000

  23. gh  t 0.0000 0.0000 0.0000 0.0000 0.0000 0.0000 0.0000 0.0000 0.0000
          c 0.0000 0.0000 0.0000 0.0000 0.0000 0.0000 0.0000 0.0000 0.0000
          i 0.0000 0.0000 0.0000 0.0000 0.0000 0.0000 0.0000 0.0000 0.0000

  24. gh  t 0.0000 0.0000 0.0000 0.0000 0.0000 0.0000 0.0000 0.0000 0.0000
          c 0.0000 0.0000 0.0000 0.0000 0.0000 0.0000 0.0000 0.0000 0.0000
          i 0.0000 0.0000 0.0000 0.0000 0.0000 0.0000 0.0000 0.0000 0.0000

  25. gh  t 0.0000 0.0000 0.0000 0.0000 0.0000 0.0000 0.0000 0.0000 0.0000
          c 0.0000 0.0000 0.0000 0.0000 0.0000 0.0000 0.0000 0.0000 0.0000
          i 0.0000 0.0000 0.0000 0.0000 0.0000 0.0000 0.0000 0.0000 0.0000

  26. gh  t 0.0000 0.0000 0.0000 0.0000 0.0000 0.0000 0.0000 0.0000 0.0000
          c 0.0000 0.0000 0.0000 0.0000 0.0000 0.0000 0.0000 0.0000 0.0000
          i 0.0000 0.0000 0.0000 0.0000 0.0000 0.0000 0.0000 0.0000 0.0000

  27. gh  t 0.0000 0.0000 0.0000 0.0000 0.0000 0.0000 0.0000 0.0000 0.0000
          c 0.0000 0.0000 0.0000 0.0000 0.0000 0.0000 0.0000 0.0000 0.0000
          i 0.0000 0.0000 0.0000 0.0000 0.0000 0.0000 0.0000 0.0000 0.0000

     Atom      10     11     12     13     14     15     16     17     18
     ----   ------ ------ ------ ------ ------ ------ ------ ------ ------
   1.  H  t 0.0000 0.0000 0.0000 0.0000 0.0000 0.0000 0.0000 0.0000 0.0000
          c 0.0000 0.0000 0.0000 0.0000 0.0000 0.0000 0.0000 0.0000 0.0000
          i 0.0000 0.0000 0.0000 0.0000 0.0000 0.0000 0.0000 0.0000 0.0000

   2.  C  t 0.0000 0.0000 0.0000 0.0000 0.0000 0.0000 0.0000 0.0000 0.0000
          c 0.0000 0.0000 0.0000 0.0000 0.0000 0.0000 0.0000 0.0000 0.0000
          i 0.0000 0.0000 0.0000 0.0000 0.0000 0.0000 0.0000 0.0000 0.0000

   3.  C  t 0.0000 0.9674 0.0000 0.0000 0.0000 0.0000 0.0000 0.0000 0.0000
          c 0.0000 0.7320 0.0000 0.0000 0.0000 0.0000 0.0000 0.0000 0.0000
          i 0.0000 0.2354 0.0000 0.0000 0.0000 0.0000 0.0000 0.0000 0.0000

   4.  C  t 0.0000 0.0000 0.9475 0.0000 0.0000 0.0000 0.0000 0.0000 0.0000
          c 0.0000 0.0000 0.9471 0.0000 0.0000 0.0000 0.0000 0.0000 0.0000
          i 0.0000 0.0000 0.0005 0.0000 0.0000 0.0000 0.0000 0.0000 0.0000

   5.  C  t 0.0000 0.0000 0.0000 0.0000 0.0000 0.0000 0.0000 0.0000 0.0000
          c 0.0000 0.0000 0.0000 0.0000 0.0000 0.0000 0.0000 0.0000 0.0000
          i 0.0000 0.0000 0.0000 0.0000 0.0000 0.0000 0.0000 0.0000 0.0000

   6.  C  t 0.0000 0.0000 0.0000 0.0000 0.0000 0.0000 0.0000 0.0000 0.0000
          c 0.0000 0.0000 0.0000 0.0000 0.0000 0.0000 0.0000 0.0000 0.0000
          i 0.0000 0.0000 0.0000 0.0000 0.0000 0.0000 0.0000 0.0000 0.0000

   7.  C  t 0.9643 0.0000 0.0000 0.0000 0.0000 0.0000 0.0000 0.0000 0.0000
          c 0.7277 0.0000 0.0000 0.0000 0.0000 0.0000 0.0000 0.0000 0.0000
          i 0.2366 0.0000 0.0000 0.0000 0.0000 0.0000 0.0000 0.0000 0.0000

   8.  H  t 0.0000 0.0000 0.0000 0.0000 0.0000 0.0000 0.0000 0.0000 0.0000
          c 0.0000 0.0000 0.0000 0.0000 0.0000 0.0000 0.0000 0.0000 0.0000
          i 0.0000 0.0000 0.0000 0.0000 0.0000 0.0000 0.0000 0.0000 0.0000

   9.  H  t 0.0000 0.0000 0.0000 0.0000 0.0000 0.0000 0.0000 0.0000 0.0000
          c 0.0000 0.0000 0.0000 0.0000 0.0000 0.0000 0.0000 0.0000 0.0000
          i 0.0000 0.0000 0.0000 0.0000 0.0000 0.0000 0.0000 0.0000 0.0000

  10.  H  t 0.0158 0.0000 0.0000 0.0000 0.0000 0.0000 0.0000 0.0000 0.0000
          c   ---  0.0000 0.0000 0.0000 0.0000 0.0000 0.0000 0.0000 0.0000
          i   ---  0.0000 0.0000 0.0000 0.0000 0.0000 0.0000 0.0000 0.0000

  11.  H  t 0.0000 0.0148 0.0000 0.0000 0.0000 0.0000 0.0000 0.0000 0.0000
          c 0.0000   ---  0.0000 0.0000 0.0000 0.0000 0.0000 0.0000 0.0000
          i 0.0000   ---  0.0000 0.0000 0.0000 0.0000 0.0000 0.0000 0.0000

  12.  C  t 0.0000 0.0000 0.0285 0.0000 1.4961 1.4961 0.0000 0.0000 0.0000
          c 0.0000 0.0000   ---  0.0000 1.4556 1.4556 0.0000 0.0000 0.0000
          i 0.0000 0.0000   ---  0.0000 0.0405 0.0405 0.0000 0.0000 0.0000

  13.  C  t 0.0000 0.0000 0.0000 0.0213 0.0000 0.0000 1.5033 1.5033 0.0000
          c 0.0000 0.0000 0.0000   ---  0.0000 0.0000 1.4668 1.4668 0.0000
          i 0.0000 0.0000 0.0000   ---  0.0000 0.0000 0.0365 0.0365 0.0000

  14.  C  t 0.0000 0.0000 1.4961 0.0000 0.0217 0.0000 0.0000 1.4901 0.9643
          c 0.0000 0.0000 1.4556 0.0000   ---  0.0000 0.0000 1.4641 0.7277
          i 0.0000 0.0000 0.0405 0.0000   ---  0.0000 0.0000 0.0260 0.2366

  15.  C  t 0.0000 0.0000 1.4961 0.0000 0.0000 0.0217 1.4901 0.0000 0.0000
          c 0.0000 0.0000 1.4556 0.0000 0.0000   ---  1.4641 0.0000 0.0000
          i 0.0000 0.0000 0.0405 0.0000 0.0000   ---  0.0260 0.0000 0.0000

  16.  C  t 0.0000 0.0000 0.0000 1.5033 0.0000 1.4901 0.0215 0.0000 0.0000
          c 0.0000 0.0000 0.0000 1.4668 0.0000 1.4641   ---  0.0000 0.0000
          i 0.0000 0.0000 0.0000 0.0365 0.0000 0.0260   ---  0.0000 0.0000

  17.  C  t 0.0000 0.0000 0.0000 1.5033 1.4901 0.0000 0.0000 0.0215 0.0000
          c 0.0000 0.0000 0.0000 1.4668 1.4641 0.0000 0.0000   ---  0.0000
          i 0.0000 0.0000 0.0000 0.0365 0.0260 0.0000 0.0000   ---  0.0000

  18.  H  t 0.0000 0.0000 0.0000 0.0000 0.9643 0.0000 0.0000 0.0000 0.0158
          c 0.0000 0.0000 0.0000 0.0000 0.7277 0.0000 0.0000 0.0000   ---
          i 0.0000 0.0000 0.0000 0.0000 0.2366 0.0000 0.0000 0.0000   ---

  19.  H  t 0.0000 0.0000 0.0000 0.0000 0.0000 0.9643 0.0000 0.0000 0.0000
          c 0.0000 0.0000 0.0000 0.0000 0.0000 0.7277 0.0000 0.0000 0.0000
          i 0.0000 0.0000 0.0000 0.0000 0.0000 0.2366 0.0000 0.0000 0.0000

  20.  H  t 0.0000 0.0000 0.0000 0.0000 0.0000 0.0000 0.9674 0.0000 0.0000
          c 0.0000 0.0000 0.0000 0.0000 0.0000 0.0000 0.7320 0.0000 0.0000
          i 0.0000 0.0000 0.0000 0.0000 0.0000 0.0000 0.2354 0.0000 0.0000

  21.  H  t 0.0000 0.0000 0.0000 0.0000 0.0000 0.0000 0.0000 0.9674 0.0000
          c 0.0000 0.0000 0.0000 0.0000 0.0000 0.0000 0.0000 0.7320 0.0000
          i 0.0000 0.0000 0.0000 0.0000 0.0000 0.0000 0.0000 0.2354 0.0000

  22.  H  t 0.0000 0.0000 0.0000 0.9664 0.0000 0.0000 0.0000 0.0000 0.0000
          c 0.0000 0.0000 0.0000 0.7315 0.0000 0.0000 0.0000 0.0000 0.0000
          i 0.0000 0.0000 0.0000 0.2348 0.0000 0.0000 0.0000 0.0000 0.0000

  23. gh  t 0.0000 0.0000 0.0000 0.0000 0.0000 0.0000 0.0000 0.0000 0.0000
          c 0.0000 0.0000 0.0000 0.0000 0.0000 0.0000 0.0000 0.0000 0.0000
          i 0.0000 0.0000 0.0000 0.0000 0.0000 0.0000 0.0000 0.0000 0.0000

  24. gh  t 0.0000 0.0000 0.0000 0.0000 0.0000 0.0000 0.0000 0.0000 0.0000
          c 0.0000 0.0000 0.0000 0.0000 0.0000 0.0000 0.0000 0.0000 0.0000
          i 0.0000 0.0000 0.0000 0.0000 0.0000 0.0000 0.0000 0.0000 0.0000

  25. gh  t 0.0000 0.0000 0.0000 0.0000 0.0000 0.0000 0.0000 0.0000 0.0000
          c 0.0000 0.0000 0.0000 0.0000 0.0000 0.0000 0.0000 0.0000 0.0000
          i 0.0000 0.0000 0.0000 0.0000 0.0000 0.0000 0.0000 0.0000 0.0000

  26. gh  t 0.0000 0.0000 0.0000 0.0000 0.0000 0.0000 0.0000 0.0000 0.0000
          c 0.0000 0.0000 0.0000 0.0000 0.0000 0.0000 0.0000 0.0000 0.0000
          i 0.0000 0.0000 0.0000 0.0000 0.0000 0.0000 0.0000 0.0000 0.0000

  27. gh  t 0.0000 0.0000 0.0000 0.0000 0.0000 0.0000 0.0000 0.0000 0.0000
          c 0.0000 0.0000 0.0000 0.0000 0.0000 0.0000 0.0000 0.0000 0.0000
          i 0.0000 0.0000 0.0000 0.0000 0.0000 0.0000 0.0000 0.0000 0.0000

     Atom      19     20     21     22     23     24     25     26     27
     ----   ------ ------ ------ ------ ------ ------ ------ ------ ------
   1.  H  t 0.0000 0.0000 0.0000 0.0000 0.0000 0.0000 0.0000 0.0000 0.0000
          c 0.0000 0.0000 0.0000 0.0000 0.0000 0.0000 0.0000 0.0000 0.0000
          i 0.0000 0.0000 0.0000 0.0000 0.0000 0.0000 0.0000 0.0000 0.0000

   2.  C  t 0.0000 0.0000 0.0000 0.0000 0.0000 0.0000 0.0000 0.0000 0.0000
          c 0.0000 0.0000 0.0000 0.0000 0.0000 0.0000 0.0000 0.0000 0.0000
          i 0.0000 0.0000 0.0000 0.0000 0.0000 0.0000 0.0000 0.0000 0.0000

   3.  C  t 0.0000 0.0000 0.0000 0.0000 0.0000 0.0000 0.0000 0.0000 0.0000
          c 0.0000 0.0000 0.0000 0.0000 0.0000 0.0000 0.0000 0.0000 0.0000
          i 0.0000 0.0000 0.0000 0.0000 0.0000 0.0000 0.0000 0.0000 0.0000

   4.  C  t 0.0000 0.0000 0.0000 0.0000 0.0000 0.0000 0.0000 0.0000 0.0000
          c 0.0000 0.0000 0.0000 0.0000 0.0000 0.0000 0.0000 0.0000 0.0000
          i 0.0000 0.0000 0.0000 0.0000 0.0000 0.0000 0.0000 0.0000 0.0000

   5.  C  t 0.0000 0.0000 0.0000 0.0000 0.0000 0.0000 0.0000 0.0000 0.0000
          c 0.0000 0.0000 0.0000 0.0000 0.0000 0.0000 0.0000 0.0000 0.0000
          i 0.0000 0.0000 0.0000 0.0000 0.0000 0.0000 0.0000 0.0000 0.0000

   6.  C  t 0.0000 0.0000 0.0000 0.0000 0.0000 0.0000 0.0000 0.0000 0.0000
          c 0.0000 0.0000 0.0000 0.0000 0.0000 0.0000 0.0000 0.0000 0.0000
          i 0.0000 0.0000 0.0000 0.0000 0.0000 0.0000 0.0000 0.0000 0.0000

   7.  C  t 0.0000 0.0000 0.0000 0.0000 0.0000 0.0000 0.0000 0.0000 0.0000
          c 0.0000 0.0000 0.0000 0.0000 0.0000 0.0000 0.0000 0.0000 0.0000
          i 0.0000 0.0000 0.0000 0.0000 0.0000 0.0000 0.0000 0.0000 0.0000

   8.  H  t 0.0000 0.0000 0.0000 0.0000 0.0000 0.0000 0.0000 0.0000 0.0000
          c 0.0000 0.0000 0.0000 0.0000 0.0000 0.0000 0.0000 0.0000 0.0000
          i 0.0000 0.0000 0.0000 0.0000 0.0000 0.0000 0.0000 0.0000 0.0000

   9.  H  t 0.0000 0.0000 0.0000 0.0000 0.0000 0.0000 0.0000 0.0000 0.0000
          c 0.0000 0.0000 0.0000 0.0000 0.0000 0.0000 0.0000 0.0000 0.0000
          i 0.0000 0.0000 0.0000 0.0000 0.0000 0.0000 0.0000 0.0000 0.0000

  10.  H  t 0.0000 0.0000 0.0000 0.0000 0.0000 0.0000 0.0000 0.0000 0.0000
          c 0.0000 0.0000 0.0000 0.0000 0.0000 0.0000 0.0000 0.0000 0.0000
          i 0.0000 0.0000 0.0000 0.0000 0.0000 0.0000 0.0000 0.0000 0.0000

  11.  H  t 0.0000 0.0000 0.0000 0.0000 0.0000 0.0000 0.0000 0.0000 0.0000
          c 0.0000 0.0000 0.0000 0.0000 0.0000 0.0000 0.0000 0.0000 0.0000
          i 0.0000 0.0000 0.0000 0.0000 0.0000 0.0000 0.0000 0.0000 0.0000

  12.  C  t 0.0000 0.0000 0.0000 0.0000 0.0000 0.0000 0.0000 0.0000 0.0000
          c 0.0000 0.0000 0.0000 0.0000 0.0000 0.0000 0.0000 0.0000 0.0000
          i 0.0000 0.0000 0.0000 0.0000 0.0000 0.0000 0.0000 0.0000 0.0000

  13.  C  t 0.0000 0.0000 0.0000 0.9664 0.0000 0.0000 0.0000 0.0000 0.0000
          c 0.0000 0.0000 0.0000 0.7315 0.0000 0.0000 0.0000 0.0000 0.0000
          i 0.0000 0.0000 0.0000 0.2348 0.0000 0.0000 0.0000 0.0000 0.0000

  14.  C  t 0.0000 0.0000 0.0000 0.0000 0.0000 0.0000 0.0000 0.0000 0.0000
          c 0.0000 0.0000 0.0000 0.0000 0.0000 0.0000 0.0000 0.0000 0.0000
          i 0.0000 0.0000 0.0000 0.0000 0.0000 0.0000 0.0000 0.0000 0.0000

  15.  C  t 0.9643 0.0000 0.0000 0.0000 0.0000 0.0000 0.0000 0.0000 0.0000
          c 0.7277 0.0000 0.0000 0.0000 0.0000 0.0000 0.0000 0.0000 0.0000
          i 0.2366 0.0000 0.0000 0.0000 0.0000 0.0000 0.0000 0.0000 0.0000

  16.  C  t 0.0000 0.9674 0.0000 0.0000 0.0000 0.0000 0.0000 0.0000 0.0000
          c 0.0000 0.7320 0.0000 0.0000 0.0000 0.0000 0.0000 0.0000 0.0000
          i 0.0000 0.2354 0.0000 0.0000 0.0000 0.0000 0.0000 0.0000 0.0000

  17.  C  t 0.0000 0.0000 0.9674 0.0000 0.0000 0.0000 0.0000 0.0000 0.0000
          c 0.0000 0.0000 0.7320 0.0000 0.0000 0.0000 0.0000 0.0000 0.0000
          i 0.0000 0.0000 0.2354 0.0000 0.0000 0.0000 0.0000 0.0000 0.0000

  18.  H  t 0.0000 0.0000 0.0000 0.0000 0.0000 0.0000 0.0000 0.0000 0.0000
          c 0.0000 0.0000 0.0000 0.0000 0.0000 0.0000 0.0000 0.0000 0.0000
          i 0.0000 0.0000 0.0000 0.0000 0.0000 0.0000 0.0000 0.0000 0.0000

  19.  H  t 0.0158 0.0000 0.0000 0.0000 0.0000 0.0000 0.0000 0.0000 0.0000
          c   ---  0.0000 0.0000 0.0000 0.0000 0.0000 0.0000 0.0000 0.0000
          i   ---  0.0000 0.0000 0.0000 0.0000 0.0000 0.0000 0.0000 0.0000

  20.  H  t 0.0000 0.0148 0.0000 0.0000 0.0000 0.0000 0.0000 0.0000 0.0000
          c 0.0000   ---  0.0000 0.0000 0.0000 0.0000 0.0000 0.0000 0.0000
          i 0.0000   ---  0.0000 0.0000 0.0000 0.0000 0.0000 0.0000 0.0000

  21.  H  t 0.0000 0.0000 0.0148 0.0000 0.0000 0.0000 0.0000 0.0000 0.0000
          c 0.0000 0.0000   ---  0.0000 0.0000 0.0000 0.0000 0.0000 0.0000
          i 0.0000 0.0000   ---  0.0000 0.0000 0.0000 0.0000 0.0000 0.0000

  22.  H  t 0.0000 0.0000 0.0000 0.0199 0.0000 0.0000 0.0000 0.0000 0.0000
          c 0.0000 0.0000 0.0000   ---  0.0000 0.0000 0.0000 0.0000 0.0000
          i 0.0000 0.0000 0.0000   ---  0.0000 0.0000 0.0000 0.0000 0.0000

  23. gh  t 0.0000 0.0000 0.0000 0.0000 0.0000 0.0000 0.0000 0.0000 0.0000
          c 0.0000 0.0000 0.0000 0.0000   ---  0.0000 0.0000 0.0000 0.0000
          i 0.0000 0.0000 0.0000 0.0000   ---  0.0000 0.0000 0.0000 0.0000

  24. gh  t 0.0000 0.0000 0.0000 0.0000 0.0000 0.0000 0.0000 0.0000 0.0000
          c 0.0000 0.0000 0.0000 0.0000 0.0000   ---  0.0000 0.0000 0.0000
          i 0.0000 0.0000 0.0000 0.0000 0.0000   ---  0.0000 0.0000 0.0000

  25. gh  t 0.0000 0.0000 0.0000 0.0000 0.0000 0.0000 0.0000 0.0000 0.0000
          c 0.0000 0.0000 0.0000 0.0000 0.0000 0.0000   ---  0.0000 0.0000
          i 0.0000 0.0000 0.0000 0.0000 0.0000 0.0000   ---  0.0000 0.0000

  26. gh  t 0.0000 0.0000 0.0000 0.0000 0.0000 0.0000 0.0000 0.0000 0.0000
          c 0.0000 0.0000 0.0000 0.0000 0.0000 0.0000 0.0000   ---  0.0000
          i 0.0000 0.0000 0.0000 0.0000 0.0000 0.0000 0.0000   ---  0.0000

  27. gh  t 0.0000 0.0000 0.0000 0.0000 0.0000 0.0000 0.0000 0.0000 0.0000
          c 0.0000 0.0000 0.0000 0.0000 0.0000 0.0000 0.0000 0.0000   ---
          i 0.0000 0.0000 0.0000 0.0000 0.0000 0.0000 0.0000 0.0000   ---


 Natural Atomic Valencies, Electron Counts, and Charges:

                      Co-    Electro- Electron  Formal
     Atom  Valency  Valency  Valency   Count    Charge
     ----  -------  -------  -------  -------  -------
   1.  H    0.9643   0.7277   0.2366   1.9603   0.0040
   2.  C    3.9506   3.6475   0.3030   7.9445   0.0060
   3.  C    3.9608   3.6629   0.2979   7.9647  -0.0039
   4.  C    3.9397   3.8583   0.0814   7.9363   0.0034
   5.  C    3.9608   3.6629   0.2979   7.9647  -0.0039
   6.  C    3.9730   3.6651   0.3079   7.9886  -0.0156
   7.  C    3.9506   3.6475   0.3030   7.9445   0.0060
   8.  H    0.9674   0.7320   0.2354   1.9644   0.0030
   9.  H    0.9664   0.7315   0.2348   1.9725  -0.0061
  10.  H    0.9643   0.7277   0.2366   1.9603   0.0040
  11.  H    0.9674   0.7320   0.2354   1.9644   0.0030
  12.  C    3.9397   3.8583   0.0814   7.9363   0.0034
  13.  C    3.9730   3.6651   0.3079   7.9886  -0.0156
  14.  C    3.9506   3.6475   0.3030   7.9445   0.0060
  15.  C    3.9506   3.6475   0.3030   7.9445   0.0060
  16.  C    3.9608   3.6629   0.2979   7.9647  -0.0039
  17.  C    3.9608   3.6629   0.2979   7.9647  -0.0039
  18.  H    0.9643   0.7277   0.2366   1.9603   0.0040
  19.  H    0.9643   0.7277   0.2366   1.9603   0.0040
  20.  H    0.9674   0.7320   0.2354   1.9644   0.0030
  21.  H    0.9674   0.7320   0.2354   1.9644   0.0030
  22.  H    0.9664   0.7315   0.2348   1.9725  -0.0061
  23. gh    0.0000   0.0000   0.0000   0.0000   0.0000
  24. gh    0.0000   0.0000   0.0000   0.0000   0.0000
  25. gh    0.0000   0.0000   0.0000   0.0000   0.0000
  26. gh    0.0000   0.0000   0.0000   0.0000   0.0000
  27. gh    0.0000   0.0000   0.0000   0.0000   0.0000


 $NRTSTR
   STR        ! Wgt=14.21%; rhoNL=2.53165; D(0)=0.10104
     BOND S 1 2 D 2 4 S 2 5 S 3 6 D 3 7 S 3 11 S 4 7 S 4 12 D 5 6 S 5 8
          S 6 9 S 7 10 S 12 14 D 12 15 D 13 16 S 13 17 S 13 22 D 14 17
          S 14 18 S 15 16 S 15 19 S 16 20 S 17 21 END
   END
   STR        ! Wgt=14.21%; rhoNL=2.53165; D(0)=0.10104
     BOND S 1 2 S 2 4 D 2 5 D 3 6 S 3 7 S 3 11 D 4 7 S 4 12 S 5 6 S 5 8
          S 6 9 S 7 10 D 12 14 S 12 15 S 13 16 D 13 17 S 13 22 S 14 17
          S 14 18 D 15 16 S 15 19 S 16 20 S 17 21 END
   END
   STR        ! Wgt=14.21%; rhoNL=2.53165; D(0)=0.10104
     BOND S 1 2 D 2 4 S 2 5 S 3 6 D 3 7 S 3 11 S 4 7 S 4 12 D 5 6 S 5 8
          S 6 9 S 7 10 D 12 14 S 12 15 S 13 16 D 13 17 S 13 22 S 14 17
          S 14 18 D 15 16 S 15 19 S 16 20 S 17 21 END
   END
   STR        ! Wgt=14.21%; rhoNL=2.53165; D(0)=0.10104
     BOND S 1 2 S 2 4 D 2 5 D 3 6 S 3 7 S 3 11 D 4 7 S 4 12 S 5 6 S 5 8
          S 6 9 S 7 10 S 12 14 D 12 15 D 13 16 S 13 17 S 13 22 D 14 17
          S 14 18 S 15 16 S 15 19 S 16 20 S 17 21 END
   END
 $END

 NBO analysis completed in 37.76 CPU seconds (26 wall seconds)
 Maximum scratch memory used by NBO was 64621330 words (493.02 MB)
 Maximum scratch memory used by G16NBO was 7512707 words (57.32 MB)

 Opening RunExU unformatted file "/home/wangzhe/g16/Scratch/Gau-324785.EUF"
 Read unf file /home/wangzhe/g16/Scratch/Gau-324785.EUF:
 Label Gaussian matrix elements                                         IVers= 1 NLab= 2 Version=ES64L-G16RevB.01
 Title biphenyl                                                        
 NAtoms=    27 NBasis=   248 NBsUse=   248 ICharg=     0 Multip=     1 NE=    82 Len12L=8 Len4L=8 IOpCl= 0 ICGU= -1
 GAUSSIAN SCALARS                    NI= 1 NR= 1 NTot=       1 LenBuf=    2 NRI=1 N=    1000
 NPA CHARGES                         NI= 0 NR= 1 NTot=      27 LenBuf= 4000 NRI=1 N=      27
 Recovered energy= -463.318927703     dipole=      0.000000000003      0.000000000008      0.000000000008

 Test job not archived.
 1\1\GINC-RHEL-HPC\SP\RB3LYP\6-31+G(d)\C12H10\WANGZHE\27-Apr-2022\0\\# 
 B3LYP/6-31+G* NMR pop=nbo6read IOp(10/46=1)\\biphenyl\\0,1\H,0,1.909,-
 0.935,0.916\C,0,1.079,-0.517,1.452\C,0,-1.079,0.517,2.835\C,0,0.,0.,0.
 745\C,0,1.079,-0.517,2.835\C,0,0.,0.,3.531\C,0,-1.079,0.517,1.452\H,0,
 1.915,-0.925,3.367\H,0,0.,0.,4.603\H,0,-1.909,0.935,0.916\H,0,-1.915,0
 .925,3.367\C,0,0.,0.,-0.745\C,0,0.,0.,-3.531\C,0,1.079,0.517,-1.452\C,
 0,-1.079,-0.517,-1.452\C,0,-1.079,-0.517,-2.835\C,0,1.079,0.517,-2.835
 \H,0,1.909,0.935,-0.916\H,0,-1.909,-0.935,-0.916\H,0,-1.915,-0.925,-3.
 367\H,0,1.915,0.925,-3.367\H,0,0.,0.,-4.603\Bq,0,0.432106,0.901823,2.1
 38333\Bq,0,-0.432106,-0.901823,2.138333\Bq,0,0.432106,-0.901823,-2.145
 \Bq,0,-0.432106,0.901823,-2.145\Bq,0,0.,0.,2.145\\Version=ES64L-G16Rev
 B.01\HF=-463.3189277\RMSD=5.256e-09\Dipole=0.,0.,0.\Quadrupole=1.66927
 92,-5.1172486,3.4479695,0.,0.,0.\PG=C01 [X(C12H10)]\\@


 A ROPE OVER THE TOP OF A FENCE HAS THE SAME LENGTH ON EACH SIDE.
 WEIGHS 1/3 POUND PER FOOT.  ON ONE END HANGS A MONKEY HOLDING A
 BANANA, AND ON THE OTHER END A WEIGHT EQUAL TO THE WEIGHT
 OF THE MONKEY.  THE BANANA WEIGHS TWO OUNCES PER INCH.
 THE ROPE IS AS LONG AS THE AGE OF THE MONKEY, 
 AND THE WEIGHT OF THE MONKEY (IN OUNCES) IS AS MUCH
 AS THE AGE OF THE MONKEY'S MOTHER.  THE COMBINED AGES OF MONKEY
 AND MOTHER ARE THIRTY YEARS.  HALF THE WEIGHT OF THE MONKEY,
  PLUS THE WEIGHT OF THE BANANA, IS ONE FOURTH AS MUCH AS THE WEIGHT
 OF THE WEIGHT AND THE ROPE.
 THE MONKEY'S MOTHER IS HALF AS OLD AS THE MONKEY WILL BE
 WHEN IT IS 3 TIMES AS OLD AS ITS MOTHER WAS WHEN
 SHE WAS HALF AS OLD AS THE MONKEY WILL BE WHEN IT IS
 AS OLD AS ITS MOTHER WILL BE WHEN SHE IS 4 TIMES AS
 OLD AS THE MONKEY WAS WHEN IT WAS TWICE AS OLD AS 
 ITS MOTHER WAS WHEN SHE WAS ONE THIRD AS OLD AS THE
 MONKEY WAS WHEN IT WAS AS OLD AS ITS MOTHER WAS WHEN 
 SHE WAS 3 TIMES AS OLD AS THE MONKEY WAS WHEN IT WAS AS OLD AS ITS
 MOTHER WAS WHEN SHE WAS 3 TIMES AS OLD AS THE MONKEY 
 WAS WHEN IT WAS ONE FOURTH WAS OLD AS IT IS NOW.

 HOW LONG IS THE BANANA?
 Job cpu time:       0 days  0 hours 20 minutes 27.3 seconds.
 Elapsed time:       0 days  0 hours  2 minutes  5.1 seconds.
 File lengths (MBytes):  RWF=     98 Int=      0 D2E=      0 Chk=      6 Scr=      1
 Normal termination of Gaussian 16 at Wed Apr 27 13:12:17 2022.
