 Entering Gaussian System, Link 0=g16
 Input=6radialene.gjf
 Output=6radialene.log
 Initial command:
 /home/wangzhe/g16/l1.exe "/home/wangzhe/g16/Scratch/Gau-184832.inp" -scrdir="/home/wangzhe/g16/Scratch/"
 Default is to use a total of  16 processors:
                               16 via shared-memory
                                1 via Linda
 Entering Link 1 = /home/wangzhe/g16/l1.exe PID=    184833.
  
 Copyright (c) 1988-2017, Gaussian, Inc.  All Rights Reserved.
  
 This is part of the Gaussian(R) 16 program.  It is based on
 the Gaussian(R) 09 system (copyright 2009, Gaussian, Inc.),
 the Gaussian(R) 03 system (copyright 2003, Gaussian, Inc.),
 the Gaussian(R) 98 system (copyright 1998, Gaussian, Inc.),
 the Gaussian(R) 94 system (copyright 1995, Gaussian, Inc.),
 the Gaussian 92(TM) system (copyright 1992, Gaussian, Inc.),
 the Gaussian 90(TM) system (copyright 1990, Gaussian, Inc.),
 the Gaussian 88(TM) system (copyright 1988, Gaussian, Inc.),
 the Gaussian 86(TM) system (copyright 1986, Carnegie Mellon
 University), and the Gaussian 82(TM) system (copyright 1983,
 Carnegie Mellon University). Gaussian is a federally registered
 trademark of Gaussian, Inc.
  
 This software contains proprietary and confidential information,
 including trade secrets, belonging to Gaussian, Inc.
  
 This software is provided under written license and may be
 used, copied, transmitted, or stored only in accord with that
 written license.
  
 The following legend is applicable only to US Government
 contracts under FAR:
  
                    RESTRICTED RIGHTS LEGEND
  
 Use, reproduction and disclosure by the US Government is
 subject to restrictions as set forth in subparagraphs (a)
 and (c) of the Commercial Computer Software - Restricted
 Rights clause in FAR 52.227-19.
  
 Gaussian, Inc.
 340 Quinnipiac St., Bldg. 40, Wallingford CT 06492
  
  
 ---------------------------------------------------------------
 Warning -- This program may not be used in any manner that
 competes with the business of Gaussian, Inc. or will provide
 assistance to any competitor of Gaussian, Inc.  The licensee
 of this program is prohibited from giving any competitor of
 Gaussian, Inc. access to this program.  By using this program,
 the user acknowledges that Gaussian, Inc. is engaged in the
 business of creating and licensing software in the field of
 computational chemistry and represents and warrants to the
 licensee that it is not a competitor of Gaussian, Inc. and that
 it will not use this program in any manner prohibited above.
 ---------------------------------------------------------------
  

 Cite this work as:
 Gaussian 16, Revision B.01,
 M. J. Frisch, G. W. Trucks, H. B. Schlegel, G. E. Scuseria, 
 M. A. Robb, J. R. Cheeseman, G. Scalmani, V. Barone, 
 G. A. Petersson, H. Nakatsuji, X. Li, M. Caricato, A. V. Marenich, 
 J. Bloino, B. G. Janesko, R. Gomperts, B. Mennucci, H. P. Hratchian, 
 J. V. Ortiz, A. F. Izmaylov, J. L. Sonnenberg, D. Williams-Young, 
 F. Ding, F. Lipparini, F. Egidi, J. Goings, B. Peng, A. Petrone, 
 T. Henderson, D. Ranasinghe, V. G. Zakrzewski, J. Gao, N. Rega, 
 G. Zheng, W. Liang, M. Hada, M. Ehara, K. Toyota, R. Fukuda, 
 J. Hasegawa, M. Ishida, T. Nakajima, Y. Honda, O. Kitao, H. Nakai, 
 T. Vreven, K. Throssell, J. A. Montgomery, Jr., J. E. Peralta, 
 F. Ogliaro, M. J. Bearpark, J. J. Heyd, E. N. Brothers, K. N. Kudin, 
 V. N. Staroverov, T. A. Keith, R. Kobayashi, J. Normand, 
 K. Raghavachari, A. P. Rendell, J. C. Burant, S. S. Iyengar, 
 J. Tomasi, M. Cossi, J. M. Millam, M. Klene, C. Adamo, R. Cammi, 
 J. W. Ochterski, R. L. Martin, K. Morokuma, O. Farkas, 
 J. B. Foresman, and D. J. Fox, Gaussian, Inc., Wallingford CT, 2016.
 
 ******************************************
 Gaussian 16:  ES64L-G16RevB.01 20-Dec-2017
                28-May-2021 
 ******************************************
 %nprocshared=8
 Will use up to    8 processors via shared memory.
 %mem=10GB
 %chk=6radialene.chk
 ---------------------------
 #p opt freq rb3lyp/6-31g(d)
 ---------------------------
 1/18=20,19=15,26=3,38=1/1,3;
 2/9=110,12=2,17=6,18=5,40=1/2;
 3/5=1,6=6,7=1,11=2,25=1,30=1,71=1,74=-5,116=1/1,2,3;
 4//1;
 5/5=2,38=5/2;
 6/7=2,8=2,9=2,10=2,28=1/1;
 7//1,2,3,16;
 1/18=20,19=15,26=3/3(2);
 2/9=110/2;
 99//99;
 2/9=110/2;
 3/5=1,6=6,7=1,11=2,25=1,30=1,71=1,74=-5,116=1/1,2,3;
 4/5=5,16=3,69=1/1;
 5/5=2,38=5/2;
 7//1,2,3,16;
 1/18=20,19=15,26=3/3(-5);
 2/9=110/2;
 6/7=2,8=2,9=2,10=2,19=2,28=1/1;
 99/9=1/99;
 Leave Link    1 at Fri May 28 14:27:02 2021, MaxMem=  1342177280 cpu:               0.4 elap:               0.0
 (Enter /home/wangzhe/g16/l101.exe)
 -------------------
 Title Card Required
 -------------------
 Symbolic Z-matrix:
 Charge =  0 Multiplicity = 1
 C                    -0.601     3.533    -0.858 
 H                    -0.832     4.452    -0.329 
 H                    -0.832     2.615    -0.329 
 C                    -0.111     3.533    -2.114 
 C                     0.111     4.809    -2.851 
 C                     0.601     5.897    -2.223 
 H                     0.832     6.815    -2.754 
 H                     0.832     5.896    -1.163 
 C                    -0.111     4.809    -4.324 
 C                    -0.601     5.897    -4.952 
 H                    -0.832     5.896    -6.012 
 H                    -0.832     6.815    -4.421 
 C                     0.111     3.533    -5.061 
 C                     0.601     3.533    -6.317 
 H                     0.832     2.615    -6.846 
 H                     0.832     4.452    -6.846 
 C                    -0.111     2.257    -4.324 
 C                    -0.601     1.169    -4.952 
 H                    -0.832     0.252    -4.421 
 H                    -0.832     1.171    -6.012 
 C                     0.111     2.257    -2.851 
 C                     0.601     1.169    -2.223 
 H                     0.832     1.171    -1.163 
 H                     0.832     0.252    -2.754 
 
 ITRead=  0  0  0  0  0  0  0  0  0  0  0  0  0  0  0  0  0  0  0  0
 ITRead=  0  0  0  0
 MicOpt= -1 -1 -1 -1 -1 -1 -1 -1 -1 -1 -1 -1 -1 -1 -1 -1 -1 -1 -1 -1
 MicOpt= -1 -1 -1 -1
 NAtoms=     24 NQM=       24 NQMF=       0 NMMI=      0 NMMIF=      0
                NMic=       0 NMicF=      0.
                    Isotopes and Nuclear Properties:
 (Nuclear quadrupole moments (NQMom) in fm**2, nuclear magnetic moments (NMagM)
  in nuclear magnetons)

  Atom         1           2           3           4           5           6           7           8           9          10
 IAtWgt=          12           1           1          12          12          12           1           1          12          12
 AtmWgt=  12.0000000   1.0078250   1.0078250  12.0000000  12.0000000  12.0000000   1.0078250   1.0078250  12.0000000  12.0000000
 NucSpn=           0           1           1           0           0           0           1           1           0           0
 AtZEff=  -0.0000000  -0.0000000  -0.0000000  -0.0000000  -0.0000000  -0.0000000  -0.0000000  -0.0000000  -0.0000000  -0.0000000
 NQMom=    0.0000000   0.0000000   0.0000000   0.0000000   0.0000000   0.0000000   0.0000000   0.0000000   0.0000000   0.0000000
 NMagM=    0.0000000   2.7928460   2.7928460   0.0000000   0.0000000   0.0000000   2.7928460   2.7928460   0.0000000   0.0000000
 AtZNuc=   6.0000000   1.0000000   1.0000000   6.0000000   6.0000000   6.0000000   1.0000000   1.0000000   6.0000000   6.0000000

  Atom        11          12          13          14          15          16          17          18          19          20
 IAtWgt=           1           1          12          12           1           1          12          12           1           1
 AtmWgt=   1.0078250   1.0078250  12.0000000  12.0000000   1.0078250   1.0078250  12.0000000  12.0000000   1.0078250   1.0078250
 NucSpn=           1           1           0           0           1           1           0           0           1           1
 AtZEff=  -0.0000000  -0.0000000  -0.0000000  -0.0000000  -0.0000000  -0.0000000  -0.0000000  -0.0000000  -0.0000000  -0.0000000
 NQMom=    0.0000000   0.0000000   0.0000000   0.0000000   0.0000000   0.0000000   0.0000000   0.0000000   0.0000000   0.0000000
 NMagM=    2.7928460   2.7928460   0.0000000   0.0000000   2.7928460   2.7928460   0.0000000   0.0000000   2.7928460   2.7928460
 AtZNuc=   1.0000000   1.0000000   6.0000000   6.0000000   1.0000000   1.0000000   6.0000000   6.0000000   1.0000000   1.0000000

  Atom        21          22          23          24
 IAtWgt=          12          12           1           1
 AtmWgt=  12.0000000  12.0000000   1.0078250   1.0078250
 NucSpn=           0           0           1           1
 AtZEff=  -0.0000000  -0.0000000  -0.0000000  -0.0000000
 NQMom=    0.0000000   0.0000000   0.0000000   0.0000000
 NMagM=    0.0000000   0.0000000   2.7928460   2.7928460
 AtZNuc=   6.0000000   6.0000000   1.0000000   1.0000000
 Leave Link  101 at Fri May 28 14:27:02 2021, MaxMem=  1342177280 cpu:               0.5 elap:               0.1
 (Enter /home/wangzhe/g16/l103.exe)

 GradGradGradGradGradGradGradGradGradGradGradGradGradGradGradGradGradGrad
 Berny optimization.
 Initialization pass.
                           ----------------------------
                           !    Initial Parameters    !
                           ! (Angstroms and Degrees)  !
 --------------------------                            --------------------------
 ! Name  Definition              Value          Derivative Info.                !
 --------------------------------------------------------------------------------
 ! R1    R(1,2)                  1.0852         estimate D2E/DX2                !
 ! R2    R(1,3)                  1.0844         estimate D2E/DX2                !
 ! R3    R(1,4)                  1.3482         estimate D2E/DX2                !
 ! R4    R(4,5)                  1.4902         estimate D2E/DX2                !
 ! R5    R(4,21)                 1.4902         estimate D2E/DX2                !
 ! R6    R(5,6)                  1.3484         estimate D2E/DX2                !
 ! R7    R(5,9)                  1.4896         estimate D2E/DX2                !
 ! R8    R(6,7)                  1.0854         estimate D2E/DX2                !
 ! R9    R(6,8)                  1.0849         estimate D2E/DX2                !
 ! R10   R(9,10)                 1.3484         estimate D2E/DX2                !
 ! R11   R(9,13)                 1.4902         estimate D2E/DX2                !
 ! R12   R(10,11)                1.0849         estimate D2E/DX2                !
 ! R13   R(10,12)                1.0854         estimate D2E/DX2                !
 ! R14   R(13,14)                1.3482         estimate D2E/DX2                !
 ! R15   R(13,17)                1.4902         estimate D2E/DX2                !
 ! R16   R(14,15)                1.0844         estimate D2E/DX2                !
 ! R17   R(14,16)                1.0852         estimate D2E/DX2                !
 ! R18   R(17,18)                1.3484         estimate D2E/DX2                !
 ! R19   R(17,21)                1.4896         estimate D2E/DX2                !
 ! R20   R(18,19)                1.0845         estimate D2E/DX2                !
 ! R21   R(18,20)                1.0849         estimate D2E/DX2                !
 ! R22   R(21,22)                1.3484         estimate D2E/DX2                !
 ! R23   R(22,23)                1.0849         estimate D2E/DX2                !
 ! R24   R(22,24)                1.0845         estimate D2E/DX2                !
 ! A1    A(2,1,3)              115.7049         estimate D2E/DX2                !
 ! A2    A(2,1,4)              122.1051         estimate D2E/DX2                !
 ! A3    A(3,1,4)              122.1331         estimate D2E/DX2                !
 ! A4    A(1,4,5)              120.9905         estimate D2E/DX2                !
 ! A5    A(1,4,21)             120.9905         estimate D2E/DX2                !
 ! A6    A(5,4,21)             117.8015         estimate D2E/DX2                !
 ! A7    A(4,5,6)              120.9775         estimate D2E/DX2                !
 ! A8    A(4,5,9)              117.8298         estimate D2E/DX2                !
 ! A9    A(6,5,9)              120.9765         estimate D2E/DX2                !
 ! A10   A(5,6,7)              122.1361         estimate D2E/DX2                !
 ! A11   A(5,6,8)              122.1192         estimate D2E/DX2                !
 ! A12   A(7,6,8)              115.6882         estimate D2E/DX2                !
 ! A13   A(5,9,10)             120.9765         estimate D2E/DX2                !
 ! A14   A(5,9,13)             117.8298         estimate D2E/DX2                !
 ! A15   A(10,9,13)            120.9775         estimate D2E/DX2                !
 ! A16   A(9,10,11)            122.1192         estimate D2E/DX2                !
 ! A17   A(9,10,12)            122.1361         estimate D2E/DX2                !
 ! A18   A(11,10,12)           115.6882         estimate D2E/DX2                !
 ! A19   A(9,13,14)            120.9905         estimate D2E/DX2                !
 ! A20   A(9,13,17)            117.8015         estimate D2E/DX2                !
 ! A21   A(14,13,17)           120.9905         estimate D2E/DX2                !
 ! A22   A(13,14,15)           122.1331         estimate D2E/DX2                !
 ! A23   A(13,14,16)           122.1051         estimate D2E/DX2                !
 ! A24   A(15,14,16)           115.7049         estimate D2E/DX2                !
 ! A25   A(13,17,18)           120.9775         estimate D2E/DX2                !
 ! A26   A(13,17,21)           117.8298         estimate D2E/DX2                !
 ! A27   A(18,17,21)           120.9765         estimate D2E/DX2                !
 ! A28   A(17,18,19)           122.1139         estimate D2E/DX2                !
 ! A29   A(17,18,20)           122.0689         estimate D2E/DX2                !
 ! A30   A(19,18,20)           115.7592         estimate D2E/DX2                !
 ! A31   A(4,21,17)            117.8298         estimate D2E/DX2                !
 ! A32   A(4,21,22)            120.9775         estimate D2E/DX2                !
 ! A33   A(17,21,22)           120.9765         estimate D2E/DX2                !
 ! A34   A(21,22,23)           122.0689         estimate D2E/DX2                !
 ! A35   A(21,22,24)           122.1139         estimate D2E/DX2                !
 ! A36   A(23,22,24)           115.7592         estimate D2E/DX2                !
 ! D1    D(2,1,4,5)             -1.3091         estimate D2E/DX2                !
 ! D2    D(2,1,4,21)          -175.8313         estimate D2E/DX2                !
 ! D3    D(3,1,4,5)            175.8297         estimate D2E/DX2                !
 ! D4    D(3,1,4,21)             1.3075         estimate D2E/DX2                !
 ! D5    D(1,4,5,6)             39.5372         estimate D2E/DX2                !
 ! D6    D(1,4,5,9)           -145.754          estimate D2E/DX2                !
 ! D7    D(21,4,5,6)          -145.7709         estimate D2E/DX2                !
 ! D8    D(21,4,5,9)            28.9378         estimate D2E/DX2                !
 ! D9    D(1,4,21,17)          145.754          estimate D2E/DX2                !
 ! D10   D(1,4,21,22)          -39.5372         estimate D2E/DX2                !
 ! D11   D(5,4,21,17)          -28.9378         estimate D2E/DX2                !
 ! D12   D(5,4,21,22)          145.7709         estimate D2E/DX2                !
 ! D13   D(4,5,6,7)            175.8502         estimate D2E/DX2                !
 ! D14   D(4,5,6,8)             -1.2992         estimate D2E/DX2                !
 ! D15   D(9,5,6,7)              1.3083         estimate D2E/DX2                !
 ! D16   D(9,5,6,8)           -175.8411         estimate D2E/DX2                !
 ! D17   D(4,5,9,10)           145.7627         estimate D2E/DX2                !
 ! D18   D(4,5,9,13)           -28.9461         estimate D2E/DX2                !
 ! D19   D(6,5,9,10)           -39.5285         estimate D2E/DX2                !
 ! D20   D(6,5,9,13)           145.7627         estimate D2E/DX2                !
 ! D21   D(5,9,10,11)         -175.8411         estimate D2E/DX2                !
 ! D22   D(5,9,10,12)            1.3083         estimate D2E/DX2                !
 ! D23   D(13,9,10,11)          -1.2992         estimate D2E/DX2                !
 ! D24   D(13,9,10,12)         175.8502         estimate D2E/DX2                !
 ! D25   D(5,9,13,14)         -145.754          estimate D2E/DX2                !
 ! D26   D(5,9,13,17)           28.9378         estimate D2E/DX2                !
 ! D27   D(10,9,13,14)          39.5372         estimate D2E/DX2                !
 ! D28   D(10,9,13,17)        -145.7709         estimate D2E/DX2                !
 ! D29   D(9,13,14,15)         175.8297         estimate D2E/DX2                !
 ! D30   D(9,13,14,16)          -1.3091         estimate D2E/DX2                !
 ! D31   D(17,13,14,15)          1.3075         estimate D2E/DX2                !
 ! D32   D(17,13,14,16)       -175.8313         estimate D2E/DX2                !
 ! D33   D(9,13,17,18)         145.7709         estimate D2E/DX2                !
 ! D34   D(9,13,17,21)         -28.9378         estimate D2E/DX2                !
 ! D35   D(14,13,17,18)        -39.5372         estimate D2E/DX2                !
 ! D36   D(14,13,17,21)        145.754          estimate D2E/DX2                !
 ! D37   D(13,17,18,19)       -175.8298         estimate D2E/DX2                !
 ! D38   D(13,17,18,20)          1.2804         estimate D2E/DX2                !
 ! D39   D(21,17,18,19)         -1.2879         estimate D2E/DX2                !
 ! D40   D(21,17,18,20)        175.8222         estimate D2E/DX2                !
 ! D41   D(13,17,21,4)          28.9461         estimate D2E/DX2                !
 ! D42   D(13,17,21,22)       -145.7627         estimate D2E/DX2                !
 ! D43   D(18,17,21,4)        -145.7627         estimate D2E/DX2                !
 ! D44   D(18,17,21,22)         39.5285         estimate D2E/DX2                !
 ! D45   D(4,21,22,23)           1.2804         estimate D2E/DX2                !
 ! D46   D(4,21,22,24)        -175.8298         estimate D2E/DX2                !
 ! D47   D(17,21,22,23)        175.8222         estimate D2E/DX2                !
 ! D48   D(17,21,22,24)         -1.2879         estimate D2E/DX2                !
 --------------------------------------------------------------------------------
 Trust Radius=3.00D-01 FncErr=1.00D-07 GrdErr=1.00D-06 EigMax=2.50D+02 EigMin=1.00D-04
 Number of steps in this run=    118 maximum allowed number of steps=    144.
 GradGradGradGradGradGradGradGradGradGradGradGradGradGradGradGradGradGrad

 Leave Link  103 at Fri May 28 14:27:02 2021, MaxMem=  1342177280 cpu:               0.0 elap:               0.0
 (Enter /home/wangzhe/g16/l202.exe)
                          Input orientation:                          
 ---------------------------------------------------------------------
 Center     Atomic      Atomic             Coordinates (Angstroms)
 Number     Number       Type             X           Y           Z
 ---------------------------------------------------------------------
      1          6           0       -0.601000    3.533000   -0.858000
      2          1           0       -0.832000    4.452000   -0.329000
      3          1           0       -0.832000    2.615000   -0.329000
      4          6           0       -0.111000    3.533000   -2.114000
      5          6           0        0.111000    4.809000   -2.851000
      6          6           0        0.601000    5.897000   -2.223000
      7          1           0        0.832000    6.815000   -2.754000
      8          1           0        0.832000    5.896000   -1.163000
      9          6           0       -0.111000    4.809000   -4.324000
     10          6           0       -0.601000    5.897000   -4.952000
     11          1           0       -0.832000    5.896000   -6.012000
     12          1           0       -0.832000    6.815000   -4.421000
     13          6           0        0.111000    3.533000   -5.061000
     14          6           0        0.601000    3.533000   -6.317000
     15          1           0        0.832000    2.615000   -6.846000
     16          1           0        0.832000    4.452000   -6.846000
     17          6           0       -0.111000    2.257000   -4.324000
     18          6           0       -0.601000    1.169000   -4.952000
     19          1           0       -0.832000    0.252000   -4.421000
     20          1           0       -0.832000    1.171000   -6.012000
     21          6           0        0.111000    2.257000   -2.851000
     22          6           0        0.601000    1.169000   -2.223000
     23          1           0        0.832000    1.171000   -1.163000
     24          1           0        0.832000    0.252000   -2.754000
 ---------------------------------------------------------------------
                    Distance matrix (angstroms):
                    1          2          3          4          5
     1  C    0.000000
     2  H    1.085248   0.000000
     3  H    1.084401   1.837000   0.000000
     4  C    1.348197   2.133220   2.132789   0.000000
     5  C    2.471269   2.716097   3.473236   1.490178   0.000000
     6  C    2.982704   2.780063   4.051203   2.471299   1.348417
     7  H    4.052139   3.772703   5.127331   3.474244   2.133843
     8  H    2.780339   2.355756   3.772189   2.716140   2.133250
     9  C    3.725779   4.075207   4.614488   2.551916   1.489635
    10  C    4.727508   4.849074   5.674241   3.725968   2.470807
    11  H    5.674579   5.863585   6.562122   4.614977   3.473145
    12  H    4.849727   4.725276   5.863827   4.075980   2.716281
    13  C    4.262881   4.911785   4.911598   2.955350   2.551916
    14  C    5.589766   6.225287   6.225139   4.262881   3.725779
    15  H    6.225139   6.972428   6.726082   4.911598   4.614488
    16  H    6.225287   6.726082   6.972428   4.911785   4.075207
    17  C    3.725779   4.614964   4.075295   2.551916   2.954948
    18  C    4.727508   5.674820   4.849372   3.725968   4.262716
    19  H    4.849051   5.863827   4.725276   4.075175   4.911252
    20  H    5.674163   6.562122   5.863585   4.614465   4.910826
    21  C    2.471269   3.473868   2.716228   1.490178   2.552000
    22  C    2.982704   4.052014   2.780583   2.471299   3.726135
    23  H    2.779489   3.772189   2.355756   2.715271   4.074829
    24  H    4.051329   5.127331   3.772703   3.473300   4.614705
                    6          7          8          9         10
     6  C    0.000000
     7  H    1.085378   0.000000
     8  H    1.084879   1.837346   0.000000
     9  C    2.470807   2.716281   3.473145   0.000000
    10  C    2.981987   2.779823   4.050927   1.348417   0.000000
    11  H    4.050927   3.772005   5.126568   2.133250   1.084879
    12  H    2.779823   2.355374   3.772005   2.133843   1.085378
    13  C    3.725968   4.075980   4.614977   1.490178   2.471299
    14  C    4.727508   4.849727   5.674579   2.471269   2.982704
    15  H    5.674241   5.863827   6.562122   3.473236   4.051203
    16  H    4.849074   4.725276   5.863585   2.716097   2.780063
    17  C    4.262716   4.912180   4.911567   2.552000   3.726135
    18  C    5.589833   6.225914   6.225314   3.726135   4.728000
    19  H    6.225007   6.972858   6.725935   4.614705   5.674623
    20  H    6.224555   6.725935   6.971895   4.074829   4.848921
    21  C    3.726135   4.615692   4.075722   2.954948   4.262716
    22  C    4.728000   5.675618   4.849896   4.262716   5.589833
    23  H    4.848921   5.863959   4.725000   4.910826   6.224555
    24  H    5.674623   6.563000   5.863959   4.911252   6.225007
                   11         12         13         14         15
    11  H    0.000000
    12  H    1.837346   0.000000
    13  C    2.716140   3.474244   0.000000
    14  C    2.780339   4.052139   1.348197   0.000000
    15  H    3.772189   5.127331   2.132789   1.084401   0.000000
    16  H    2.355756   3.772703   2.133220   1.085248   1.837000
    17  C    4.075722   4.615692   1.490178   2.471269   2.716228
    18  C    4.849896   5.675618   2.471299   2.982704   2.780583
    19  H    5.863959   6.563000   3.473300   4.051329   3.772703
    20  H    4.725000   5.863959   2.715271   2.779489   2.355756
    21  C    4.911567   4.912180   2.551916   3.725779   4.075295
    22  C    6.225314   6.225914   3.725968   4.727508   4.849372
    23  H    6.971895   6.725935   4.614465   5.674163   5.863585
    24  H    6.725935   6.972858   4.075175   4.849051   4.725276
                   16         17         18         19         20
    16  H    0.000000
    17  C    3.473868   0.000000
    18  C    4.052014   1.348417   0.000000
    19  H    5.127331   2.132903   1.084533   0.000000
    20  H    3.772189   2.132740   1.084880   1.837346   0.000000
    21  C    4.614964   1.489635   2.470807   2.715543   3.472833
    22  C    5.674820   2.470807   2.981987   2.779493   4.050928
    23  H    6.562122   3.472833   4.050928   3.772005   5.126568
    24  H    5.863827   2.715543   2.779493   2.355374   3.772005
                   21         22         23         24
    21  C    0.000000
    22  C    1.348417   0.000000
    23  H    2.132740   1.084880   0.000000
    24  H    2.132903   1.084533   1.837346   0.000000
 Stoichiometry    C12H12
 Framework group  C2[X(C12H12)]
 Deg. of freedom    34
 Full point group                 C2      NOp   2
 Largest Abelian subgroup         C2      NOp   2
 Largest concise Abelian subgroup C2      NOp   2
                         Standard orientation:                         
 ---------------------------------------------------------------------
 Center     Atomic      Atomic             Coordinates (Angstroms)
 Number     Number       Type             X           Y           Z
 ---------------------------------------------------------------------
      1          6           0        0.601000    2.729500   -0.000071
      2          1           0        0.832000    3.258500    0.918929
      3          1           0        0.832000    3.258500   -0.918071
      4          6           0        0.111000    1.473500   -0.000071
      5          6           0       -0.111000    0.736500    1.275929
      6          6           0       -0.601000    1.364500    2.363929
      7          1           0       -0.832000    0.833500    3.281929
      8          1           0       -0.832000    2.424500    2.362929
      9          6           0        0.111000   -0.736500    1.275929
     10          6           0        0.601000   -1.364500    2.363929
     11          1           0        0.832000   -2.424500    2.362929
     12          1           0        0.832000   -0.833500    3.281929
     13          6           0       -0.111000   -1.473500   -0.000071
     14          6           0       -0.601000   -2.729500   -0.000071
     15          1           0       -0.832000   -3.258500   -0.918071
     16          1           0       -0.832000   -3.258500    0.918929
     17          6           0        0.111000   -0.736500   -1.276071
     18          6           0        0.601000   -1.364500   -2.364071
     19          1           0        0.832000   -0.833500   -3.281071
     20          1           0        0.832000   -2.424500   -2.362071
     21          6           0       -0.111000    0.736500   -1.276071
     22          6           0       -0.601000    1.364500   -2.364071
     23          1           0       -0.832000    2.424500   -2.362071
     24          1           0       -0.832000    0.833500   -3.281071
 ---------------------------------------------------------------------
 Rotational constants (GHZ):           1.1208594           1.1206318           0.6079151
 Leave Link  202 at Fri May 28 14:27:02 2021, MaxMem=  1342177280 cpu:               0.0 elap:               0.0
 (Enter /home/wangzhe/g16/l301.exe)
 Standard basis: 6-31G(d) (6D, 7F)
 Ernie: Thresh=  0.10000D-02 Tol=  0.10000D-05 Strict=F.
 There are   102 symmetry adapted cartesian basis functions of A   symmetry.
 There are   102 symmetry adapted cartesian basis functions of B   symmetry.
 There are   102 symmetry adapted basis functions of A   symmetry.
 There are   102 symmetry adapted basis functions of B   symmetry.
   204 basis functions,   384 primitive gaussians,   204 cartesian basis functions
    42 alpha electrons       42 beta electrons
       nuclear repulsion energy       634.7082812281 Hartrees.
 IExCor=  402 DFT=T Ex+Corr=B3LYP ExCW=0 ScaHFX=  0.200000
 ScaDFX=  0.800000  0.720000  1.000000  0.810000 ScalE2=  1.000000  1.000000
 IRadAn=      5 IRanWt=     -1 IRanGd=            0 ICorTp=0 IEmpDi=  4
 NAtoms=   24 NActive=   24 NUniq=   12 SFac= 4.00D+00 NAtFMM=   60 NAOKFM=F Big=F
 Integral buffers will be    131072 words long.
 Raffenetti 2 integral format.
 Two-electron integral symmetry is turned on.
 Leave Link  301 at Fri May 28 14:27:02 2021, MaxMem=  1342177280 cpu:               0.1 elap:               0.0
 (Enter /home/wangzhe/g16/l302.exe)
 NPDir=0 NMtPBC=     1 NCelOv=     1 NCel=       1 NClECP=     1 NCelD=      1
         NCelK=      1 NCelE2=     1 NClLst=     1 CellRange=     0.0.
 One-electron integrals computed using PRISM.
 One-electron integral symmetry used in STVInt
 NBasis=   204 RedAO= T EigKep=  1.08D-03  NBF=   102   102
 NBsUse=   204 1.00D-06 EigRej= -1.00D+00 NBFU=   102   102
 Precomputing XC quadrature grid using
 IXCGrd= 4 IRadAn=           5 IRanWt=          -1 IRanGd=           0 AccXCQ= 0.00D+00.
 Generated NRdTot=       0 NPtTot=           0 NUsed=           0 NTot=          32
 NSgBfM=   203   203   203   203   203 MxSgAt=    24 MxSgA2=    24.
 Leave Link  302 at Fri May 28 14:27:02 2021, MaxMem=  1342177280 cpu:               0.8 elap:               0.1
 (Enter /home/wangzhe/g16/l303.exe)
 DipDrv:  MaxL=1.
 Leave Link  303 at Fri May 28 14:27:02 2021, MaxMem=  1342177280 cpu:               0.1 elap:               0.0
 (Enter /home/wangzhe/g16/l401.exe)
 ExpMin= 1.61D-01 ExpMax= 3.05D+03 ExpMxC= 4.57D+02 IAcc=3 IRadAn=         5 AccDes= 0.00D+00
 Harris functional with IExCor=  402 and IRadAn=       5 diagonalized for initial guess.
 HarFok:  IExCor=  402 AccDes= 0.00D+00 IRadAn=         5 IDoV= 1 UseB2=F ITyADJ=14
 ICtDFT=  3500011 ScaDFX=  1.000000  1.000000  1.000000  1.000000
 FoFCou: FMM=F IPFlag=           0 FMFlag=      100000 FMFlg1=           0
         NFxFlg=           0 DoJE=T BraDBF=F KetDBF=T FulRan=T
         wScrn=  0.000000 ICntrl=       500 IOpCl=  0 I1Cent=   200000004 NGrid=           0
         NMat0=    1 NMatS0=      1 NMatT0=    0 NMatD0=    1 NMtDS0=    0 NMtDT0=    0
 Petite list used in FoFCou.
 Harris En= -464.436756876329    
 JPrj=0 DoOrth=F DoCkMO=F.
 Initial guess orbital symmetries:
       Occupied  (A) (B) (B) (A) (B) (A) (A) (A) (B) (B) (A) (B)
                 (A) (A) (B) (A) (B) (B) (A) (A) (B) (A) (B) (A)
                 (B) (A) (A) (B) (B) (A) (A) (B) (B) (B) (A) (B)
                 (A) (A) (B) (B) (A) (A)
       Virtual   (B) (B) (A) (B) (A) (A) (A) (B) (A) (A) (B) (A)
                 (B) (B) (A) (B) (A) (B) (B) (A) (B) (A) (A) (B)
                 (A) (B) (A) (B) (B) (B) (A) (A) (B) (B) (A) (A)
                 (B) (A) (A) (B) (B) (A) (B) (A) (A) (B) (B) (A)
                 (B) (A) (A) (B) (A) (B) (A) (A) (B) (B) (A) (B)
                 (A) (B) (B) (A) (B) (A) (A) (B) (B) (A) (B) (A)
                 (B) (A) (B) (B) (A) (B) (A) (A) (B) (B) (A) (B)
                 (B) (A) (B) (A) (B) (A) (B) (A) (B) (A) (B) (A)
                 (A) (B) (A) (B) (B) (A) (A) (A) (B) (B) (A) (B)
                 (A) (A) (B) (A) (A) (B) (B) (B) (A) (B) (A) (A)
                 (B) (B) (B) (A) (A) (B) (A) (B) (A) (B) (B) (A)
                 (B) (A) (A) (B) (A) (A) (B) (A) (B) (A) (A) (B)
                 (A) (B) (A) (B) (B) (B) (A) (B) (A) (B) (A) (B)
                 (A) (B) (A) (A) (B) (B)
 The electronic state of the initial guess is 1-A.
 Leave Link  401 at Fri May 28 14:27:03 2021, MaxMem=  1342177280 cpu:               2.4 elap:               0.3
 (Enter /home/wangzhe/g16/l502.exe)
 Keep R1 ints in memory in symmetry-blocked form, NReq=327989949.
 FoFCou: FMM=F IPFlag=           0 FMFlag=           0 FMFlg1=           0
         NFxFlg=           0 DoJE=F BraDBF=F KetDBF=F FulRan=T
         wScrn=  0.000000 ICntrl=       600 IOpCl=  0 I1Cent=           0 NGrid=           0
         NMat0=    1 NMatS0=  20910 NMatT0=    0 NMatD0=    1 NMtDS0=    0 NMtDT0=    0
 Petite list used in FoFCou.
 Closed shell SCF:
 Using DIIS extrapolation, IDIIS=  1040.
 NGot=  1342177280 LenX=  1232726241 LenY=  1232684184
 Requested convergence on RMS density matrix=1.00D-08 within 128 cycles.
 Requested convergence on MAX density matrix=1.00D-06.
 Requested convergence on             energy=1.00D-06.
 No special actions if energy rises.
 Integral accuracy reduced to 1.0D-05 until final iterations.

 Cycle   1  Pass 0  IDiag  1:
 E= -464.070760242072    
 DIIS: error= 4.34D-02 at cycle   1 NSaved=   1.
 NSaved= 1 IEnMin= 1 EnMin= -464.070760242072     IErMin= 1 ErrMin= 4.34D-02
 ErrMax= 4.34D-02  0.00D+00 EMaxC= 1.00D-01 BMatC= 2.83D-01 BMatP= 2.83D-01
 IDIUse=3 WtCom= 5.66D-01 WtEn= 4.34D-01
 Coeff-Com:  0.100D+01
 Coeff-En:   0.100D+01
 Coeff:      0.100D+01
 Gap=     0.141 Goal=   None    Shift=    0.000
 GapD=    0.141 DampG=1.000 DampE=0.500 DampFc=0.5000 IDamp=-1.
 Damping current iteration by 5.00D-01
 RMSDP=5.22D-03 MaxDP=1.19D-01              OVMax= 1.52D-01

 Cycle   2  Pass 0  IDiag  1:
 E= -464.223570594865     Delta-E=       -0.152810352793 Rises=F Damp=T
 DIIS: error= 8.25D-03 at cycle   2 NSaved=   2.
 NSaved= 2 IEnMin= 2 EnMin= -464.223570594865     IErMin= 2 ErrMin= 8.25D-03
 ErrMax= 8.25D-03  0.00D+00 EMaxC= 1.00D-01 BMatC= 1.45D-02 BMatP= 2.83D-01
 IDIUse=3 WtCom= 9.17D-01 WtEn= 8.25D-02
 Coeff-Com: -0.126D-01 0.101D+01
 Coeff-En:   0.000D+00 0.100D+01
 Coeff:     -0.115D-01 0.101D+01
 Gap=     0.150 Goal=   None    Shift=    0.000
 RMSDP=1.25D-03 MaxDP=2.60D-02 DE=-1.53D-01 OVMax= 8.55D-02

 Cycle   3  Pass 0  IDiag  1:
 E= -464.359227244506     Delta-E=       -0.135656649641 Rises=F Damp=F
 DIIS: error= 1.34D-02 at cycle   3 NSaved=   3.
 NSaved= 3 IEnMin= 3 EnMin= -464.359227244506     IErMin= 2 ErrMin= 8.25D-03
 ErrMax= 1.34D-02  0.00D+00 EMaxC= 1.00D-01 BMatC= 1.93D-02 BMatP= 1.45D-02
 IDIUse=2 WtCom= 0.00D+00 WtEn= 1.00D+00
 Coeff-En:   0.000D+00 0.000D+00 0.100D+01
 Coeff:      0.000D+00 0.000D+00 0.100D+01
 Gap=     0.144 Goal=   None    Shift=    0.000
 RMSDP=2.22D-03 MaxDP=4.90D-02 DE=-1.36D-01 OVMax= 1.17D-01

 Cycle   4  Pass 0  IDiag  1:
 E= -464.256246236007     Delta-E=        0.102981008499 Rises=F Damp=F
 DIIS: error= 3.30D-02 at cycle   4 NSaved=   4.
 NSaved= 4 IEnMin= 3 EnMin= -464.359227244506     IErMin= 2 ErrMin= 8.25D-03
 ErrMax= 3.30D-02  0.00D+00 EMaxC= 1.00D-01 BMatC= 1.21D-01 BMatP= 1.45D-02
 IDIUse=2 WtCom= 0.00D+00 WtEn= 1.00D+00
 Coeff-En:   0.000D+00 0.000D+00 0.801D+00 0.199D+00
 Coeff:      0.000D+00 0.000D+00 0.801D+00 0.199D+00
 Gap=     0.147 Goal=   None    Shift=    0.000
 RMSDP=1.13D-03 MaxDP=2.49D-02 DE= 1.03D-01 OVMax= 5.77D-02

 Cycle   5  Pass 0  IDiag  1:
 E= -464.367868571219     Delta-E=       -0.111622335212 Rises=F Damp=F
 DIIS: error= 1.00D-02 at cycle   5 NSaved=   5.
 NSaved= 5 IEnMin= 5 EnMin= -464.367868571219     IErMin= 2 ErrMin= 8.25D-03
 ErrMax= 1.00D-02  0.00D+00 EMaxC= 1.00D-01 BMatC= 1.07D-02 BMatP= 1.45D-02
 IDIUse=3 WtCom= 9.00D-01 WtEn= 1.00D-01
 Coeff-Com: -0.129D-03 0.841D-02 0.258D+00-0.166D+00 0.900D+00
 Coeff-En:   0.000D+00 0.000D+00 0.398D+00 0.000D+00 0.602D+00
 Coeff:     -0.116D-03 0.757D-02 0.272D+00-0.150D+00 0.870D+00
 Gap=     0.149 Goal=   None    Shift=    0.000
 RMSDP=4.96D-04 MaxDP=1.04D-02 DE=-1.12D-01 OVMax= 2.59D-02

 Cycle   6  Pass 0  IDiag  1:
 E= -464.378773680565     Delta-E=       -0.010905109346 Rises=F Damp=F
 DIIS: error= 2.17D-04 at cycle   6 NSaved=   6.
 NSaved= 6 IEnMin= 6 EnMin= -464.378773680565     IErMin= 6 ErrMin= 2.17D-04
 ErrMax= 2.17D-04  0.00D+00 EMaxC= 1.00D-01 BMatC= 5.32D-06 BMatP= 1.07D-02
 IDIUse=3 WtCom= 9.98D-01 WtEn= 2.17D-03
 Coeff-Com:  0.308D-03-0.783D-03 0.493D-01-0.264D-01 0.173D+00 0.805D+00
 Coeff-En:   0.000D+00 0.000D+00 0.000D+00 0.000D+00 0.000D+00 0.100D+01
 Coeff:      0.307D-03-0.782D-03 0.492D-01-0.264D-01 0.173D+00 0.805D+00
 Gap=     0.149 Goal=   None    Shift=    0.000
 RMSDP=1.60D-05 MaxDP=2.14D-04 DE=-1.09D-02 OVMax= 6.38D-04

 Cycle   7  Pass 0  IDiag  1:
 E= -464.378779631436     Delta-E=       -0.000005950871 Rises=F Damp=F
 DIIS: error= 9.38D-06 at cycle   7 NSaved=   7.
 NSaved= 7 IEnMin= 7 EnMin= -464.378779631436     IErMin= 7 ErrMin= 9.38D-06
 ErrMax= 9.38D-06  0.00D+00 EMaxC= 1.00D-01 BMatC= 1.96D-08 BMatP= 5.32D-06
 IDIUse=1 WtCom= 1.00D+00 WtEn= 0.00D+00
 Coeff-Com:  0.926D-04-0.343D-03 0.686D-02-0.330D-02 0.229D-01 0.150D+00
 Coeff-Com:  0.824D+00
 Coeff:      0.926D-04-0.343D-03 0.686D-02-0.330D-02 0.229D-01 0.150D+00
 Coeff:      0.824D+00
 Gap=     0.149 Goal=   None    Shift=    0.000
 RMSDP=9.15D-07 MaxDP=3.22D-05 DE=-5.95D-06 OVMax= 8.02D-05

 Initial convergence to 1.0D-05 achieved.  Increase integral accuracy.
 Cycle   8  Pass 1  IDiag  1:
 E= -464.378768343215     Delta-E=        0.000011288221 Rises=F Damp=F
 DIIS: error= 9.24D-06 at cycle   1 NSaved=   1.
 NSaved= 1 IEnMin= 1 EnMin= -464.378768343215     IErMin= 1 ErrMin= 9.24D-06
 ErrMax= 9.24D-06  0.00D+00 EMaxC= 1.00D-01 BMatC= 1.39D-08 BMatP= 1.39D-08
 IDIUse=1 WtCom= 1.00D+00 WtEn= 0.00D+00
 Coeff-Com:  0.100D+01
 Coeff:      0.100D+01
 Gap=     0.149 Goal=   None    Shift=    0.000
 RMSDP=9.15D-07 MaxDP=3.22D-05 DE= 1.13D-05 OVMax= 1.12D-04

 Cycle   9  Pass 1  IDiag  1:
 E= -464.378768320921     Delta-E=        0.000000022294 Rises=F Damp=F
 DIIS: error= 1.18D-05 at cycle   2 NSaved=   2.
 NSaved= 2 IEnMin= 1 EnMin= -464.378768343215     IErMin= 1 ErrMin= 9.24D-06
 ErrMax= 1.18D-05  0.00D+00 EMaxC= 1.00D-01 BMatC= 3.56D-08 BMatP= 1.39D-08
 IDIUse=1 WtCom= 1.00D+00 WtEn= 0.00D+00
 Coeff-Com:  0.624D+00 0.376D+00
 Coeff:      0.624D+00 0.376D+00
 Gap=     0.149 Goal=   None    Shift=    0.000
 RMSDP=9.60D-07 MaxDP=3.32D-05 DE= 2.23D-08 OVMax= 7.94D-05

 Cycle  10  Pass 1  IDiag  1:
 E= -464.378768358826     Delta-E=       -0.000000037905 Rises=F Damp=F
 DIIS: error= 1.66D-06 at cycle   3 NSaved=   3.
 NSaved= 3 IEnMin= 3 EnMin= -464.378768358826     IErMin= 3 ErrMin= 1.66D-06
 ErrMax= 1.66D-06  0.00D+00 EMaxC= 1.00D-01 BMatC= 5.57D-10 BMatP= 1.39D-08
 IDIUse=1 WtCom= 1.00D+00 WtEn= 0.00D+00
 Coeff-Com:  0.496D-01 0.116D+00 0.834D+00
 Coeff:      0.496D-01 0.116D+00 0.834D+00
 Gap=     0.149 Goal=   None    Shift=    0.000
 RMSDP=1.95D-07 MaxDP=4.81D-06 DE=-3.79D-08 OVMax= 1.12D-05

 Cycle  11  Pass 1  IDiag  1:
 E= -464.378768358817     Delta-E=        0.000000000009 Rises=F Damp=F
 DIIS: error= 2.17D-06 at cycle   4 NSaved=   4.
 NSaved= 4 IEnMin= 3 EnMin= -464.378768358826     IErMin= 3 ErrMin= 1.66D-06
 ErrMax= 2.17D-06  0.00D+00 EMaxC= 1.00D-01 BMatC= 5.77D-10 BMatP= 5.57D-10
 IDIUse=1 WtCom= 1.00D+00 WtEn= 0.00D+00
 Coeff-Com: -0.206D-01 0.533D-01 0.622D+00 0.345D+00
 Coeff:     -0.206D-01 0.533D-01 0.622D+00 0.345D+00
 Gap=     0.149 Goal=   None    Shift=    0.000
 RMSDP=1.19D-07 MaxDP=2.98D-06 DE= 8.64D-12 OVMax= 6.87D-06

 Cycle  12  Pass 1  IDiag  1:
 E= -464.378768359409     Delta-E=       -0.000000000592 Rises=F Damp=F
 DIIS: error= 2.05D-07 at cycle   5 NSaved=   5.
 NSaved= 5 IEnMin= 5 EnMin= -464.378768359409     IErMin= 5 ErrMin= 2.05D-07
 ErrMax= 2.05D-07  0.00D+00 EMaxC= 1.00D-01 BMatC= 2.74D-12 BMatP= 5.57D-10
 IDIUse=1 WtCom= 1.00D+00 WtEn= 0.00D+00
 Coeff-Com: -0.816D-02 0.139D-01 0.173D+00 0.131D+00 0.690D+00
 Coeff:     -0.816D-02 0.139D-01 0.173D+00 0.131D+00 0.690D+00
 Gap=     0.149 Goal=   None    Shift=    0.000
 RMSDP=1.26D-08 MaxDP=2.50D-07 DE=-5.92D-10 OVMax= 4.55D-07

 Cycle  13  Pass 1  IDiag  1:
 E= -464.378768359406     Delta-E=        0.000000000004 Rises=F Damp=F
 DIIS: error= 2.77D-08 at cycle   6 NSaved=   6.
 NSaved= 6 IEnMin= 5 EnMin= -464.378768359409     IErMin= 6 ErrMin= 2.77D-08
 ErrMax= 2.77D-08  0.00D+00 EMaxC= 1.00D-01 BMatC= 1.84D-13 BMatP= 2.74D-12
 IDIUse=1 WtCom= 1.00D+00 WtEn= 0.00D+00
 Coeff-Com: -0.247D-02 0.385D-02 0.453D-01 0.448D-01 0.292D+00 0.616D+00
 Coeff:     -0.247D-02 0.385D-02 0.453D-01 0.448D-01 0.292D+00 0.616D+00
 Gap=     0.149 Goal=   None    Shift=    0.000
 RMSDP=3.19D-09 MaxDP=5.94D-08 DE= 3.64D-12 OVMax= 1.84D-07

 SCF Done:  E(RB3LYP) =  -464.378768359     A.U. after   13 cycles
            NFock= 13  Conv=0.32D-08     -V/T= 2.0101
 KE= 4.597195118917D+02 PE=-2.343542621582D+03 EE= 7.847360601026D+02
 Leave Link  502 at Fri May 28 14:27:08 2021, MaxMem=  1342177280 cpu:              36.8 elap:               5.0
 (Enter /home/wangzhe/g16/l601.exe)
 Copying SCF densities to generalized density rwf, IOpCl= 0 IROHF=0.

 **********************************************************************

            Population analysis using the SCF Density.

 **********************************************************************

 Orbital symmetries:
       Occupied  (A) (B) (A) (A) (B) (B) (B) (A) (A) (B) (B) (A)
                 (A) (A) (B) (A) (B) (B) (A) (A) (B) (A) (B) (A)
                 (A) (B) (A) (B) (A) (B) (A) (B) (B) (B) (A) (B)
                 (A) (A) (B) (B) (A) (A)
       Virtual   (B) (B) (A) (B) (A) (A) (A) (A) (B) (A) (B) (A)
                 (B) (A) (A) (B) (B) (B) (B) (A) (A) (B) (A) (B)
                 (A) (B) (A) (B) (B) (B) (A) (B) (B) (A) (A) (A)
                 (A) (B) (A) (B) (B) (A) (A) (B) (A) (B) (B) (A)
                 (A) (B) (A) (B) (A) (B) (A) (A) (B) (A) (B) (B)
                 (A) (B) (A) (B) (B) (A) (A) (B) (A) (B) (B) (A)
                 (B) (A) (B) (B) (A) (B) (A) (A) (B) (B) (A) (B)
                 (B) (B) (A) (A) (B) (A) (B) (A) (B) (A) (B) (A)
                 (A) (B) (B) (A) (B) (A) (A) (A) (B) (B) (A) (B)
                 (A) (A) (B) (A) (A) (B) (B) (B) (A) (B) (A) (B)
                 (A) (B) (B) (A) (A) (B) (A) (B) (A) (B) (B) (A)
                 (B) (A) (A) (B) (A) (A) (B) (A) (B) (A) (B) (A)
                 (A) (B) (A) (B) (B) (B) (A) (B) (A) (B) (A) (B)
                 (A) (B) (A) (A) (B) (B)
 The electronic state is 1-A.
 Alpha  occ. eigenvalues --  -10.20644 -10.20632 -10.20630 -10.20604 -10.20602
 Alpha  occ. eigenvalues --  -10.20588 -10.18340 -10.18339 -10.18333 -10.18333
 Alpha  occ. eigenvalues --  -10.18332 -10.18331  -0.86546  -0.80480  -0.80475
 Alpha  occ. eigenvalues --   -0.73017  -0.73008  -0.69502  -0.66573  -0.60268
 Alpha  occ. eigenvalues --   -0.60263  -0.54022  -0.54012  -0.50956  -0.46952
 Alpha  occ. eigenvalues --   -0.46717  -0.44487  -0.44482  -0.41888  -0.41887
 Alpha  occ. eigenvalues --   -0.40083  -0.40081  -0.39030  -0.37159  -0.35038
 Alpha  occ. eigenvalues --   -0.35032  -0.34261  -0.29515  -0.29512  -0.23265
 Alpha  occ. eigenvalues --   -0.23258  -0.21025
 Alpha virt. eigenvalues --   -0.06104  -0.01138  -0.01132   0.05892   0.05892
 Alpha virt. eigenvalues --    0.10043   0.12846   0.12940   0.12941   0.14154
 Alpha virt. eigenvalues --    0.14162   0.17517   0.17906   0.17907   0.17948
 Alpha virt. eigenvalues --    0.17954   0.19225   0.19467   0.28904   0.29165
 Alpha virt. eigenvalues --    0.29272   0.29279   0.32320   0.32325   0.37401
 Alpha virt. eigenvalues --    0.37419   0.39421   0.39430   0.43078   0.47624
 Alpha virt. eigenvalues --    0.50181   0.53296   0.53534   0.53534   0.54022
 Alpha virt. eigenvalues --    0.54493   0.57404   0.57407   0.59849   0.59855
 Alpha virt. eigenvalues --    0.60187   0.60187   0.62487   0.62619   0.64270
 Alpha virt. eigenvalues --    0.64283   0.67354   0.67358   0.67965   0.69875
 Alpha virt. eigenvalues --    0.71350   0.71352   0.72279   0.72282   0.81858
 Alpha virt. eigenvalues --    0.82626   0.82633   0.83743   0.83750   0.85362
 Alpha virt. eigenvalues --    0.85464   0.93356   0.94537   0.94540   0.95325
 Alpha virt. eigenvalues --    0.95329   0.96471   0.96930   0.98293   0.98297
 Alpha virt. eigenvalues --    0.99052   0.99329   0.99340   1.02243   1.02248
 Alpha virt. eigenvalues --    1.04711   1.08142   1.08156   1.14026   1.20705
 Alpha virt. eigenvalues --    1.20712   1.22089   1.24466   1.24472   1.27274
 Alpha virt. eigenvalues --    1.29479   1.29501   1.29657   1.30272   1.30291
 Alpha virt. eigenvalues --    1.48820   1.48826   1.49123   1.63843   1.64779
 Alpha virt. eigenvalues --    1.64781   1.67682   1.69080   1.69751   1.69751
 Alpha virt. eigenvalues --    1.69773   1.69773   1.74497   1.75811   1.80473
 Alpha virt. eigenvalues --    1.83941   1.83955   1.84441   1.84457   1.96309
 Alpha virt. eigenvalues --    1.97158   1.97160   2.02162   2.02179   2.06186
 Alpha virt. eigenvalues --    2.09193   2.09197   2.14164   2.14175   2.22481
 Alpha virt. eigenvalues --    2.22825   2.24333   2.24579   2.24586   2.27571
 Alpha virt. eigenvalues --    2.34955   2.34961   2.36274   2.36275   2.38243
 Alpha virt. eigenvalues --    2.38291   2.38313   2.44713   2.44714   2.48719
 Alpha virt. eigenvalues --    2.54155   2.54173   2.63348   2.67413   2.70792
 Alpha virt. eigenvalues --    2.70806   2.73287   2.73323   2.74213   2.90754
 Alpha virt. eigenvalues --    2.90769   3.00874   3.00879   3.23119   3.26060
 Alpha virt. eigenvalues --    4.04990   4.11916   4.11920   4.13057   4.13066
 Alpha virt. eigenvalues --    4.13577   4.19876   4.26730   4.26732   4.51649
 Alpha virt. eigenvalues --    4.51659   4.68373
          Condensed to atoms (all electrons):
               1          2          3          4          5          6
     1  C    5.196834   0.352827   0.352899   0.625404  -0.056354  -0.020373
     2  H    0.352827   0.556032  -0.039581  -0.022044  -0.008812   0.005789
     3  H    0.352899  -0.039581   0.555874  -0.022045   0.004815   0.000190
     4  C    0.625404  -0.022044  -0.022045   4.795062   0.352396  -0.056342
     5  C   -0.056354  -0.008812   0.004815   0.352396   4.795223   0.625258
     6  C   -0.020373   0.005789   0.000190  -0.056342   0.625258   5.197041
     7  H    0.000190  -0.000128   0.000004   0.004802  -0.022052   0.352845
     8  H    0.005786   0.003139  -0.000128  -0.008806  -0.022057   0.352850
     9  C    0.006905  -0.000046  -0.000158  -0.022483   0.352489  -0.056395
    10  C   -0.000165  -0.000004   0.000001   0.006901  -0.056395  -0.020391
    11  H    0.000001   0.000000  -0.000000  -0.000158   0.004813   0.000191
    12  H   -0.000004  -0.000003   0.000000  -0.000045  -0.008806   0.005785
    13  C   -0.000161   0.000000   0.000000  -0.032218  -0.022483   0.006901
    14  C   -0.000012   0.000000   0.000000  -0.000161   0.006905  -0.000165
    15  H    0.000000   0.000000   0.000000   0.000000  -0.000158   0.000001
    16  H    0.000000   0.000000   0.000000   0.000000  -0.000046  -0.000004
    17  C    0.006906  -0.000158  -0.000046  -0.022511  -0.032242  -0.000161
    18  C   -0.000165   0.000001  -0.000004   0.006902  -0.000161  -0.000012
    19  H   -0.000004   0.000000  -0.000003  -0.000046   0.000000   0.000000
    20  H    0.000001  -0.000000   0.000000  -0.000158   0.000000   0.000000
    21  C   -0.056375   0.004809  -0.008810   0.352396  -0.022471   0.006898
    22  C   -0.020380   0.000190   0.005786  -0.056342   0.006897  -0.000165
    23  H    0.005802  -0.000128   0.003135  -0.008825  -0.000046  -0.000004
    24  H    0.000190   0.000004  -0.000128   0.004816  -0.000158   0.000001
               7          8          9         10         11         12
     1  C    0.000190   0.005786   0.006905  -0.000165   0.000001  -0.000004
     2  H   -0.000128   0.003139  -0.000046  -0.000004   0.000000  -0.000003
     3  H    0.000004  -0.000128  -0.000158   0.000001  -0.000000   0.000000
     4  C    0.004802  -0.008806  -0.022483   0.006901  -0.000158  -0.000045
     5  C   -0.022052  -0.022057   0.352489  -0.056395   0.004813  -0.008806
     6  C    0.352845   0.352850  -0.056395  -0.020391   0.000191   0.005785
     7  H    0.556012  -0.039573  -0.008806   0.005785  -0.000128   0.003136
     8  H   -0.039573   0.555987   0.004813   0.000191   0.000004  -0.000128
     9  C   -0.008806   0.004813   4.795223   0.625258  -0.022057  -0.022052
    10  C    0.005785   0.000191   0.625258   5.197041   0.352850   0.352845
    11  H   -0.000128   0.000004  -0.022057   0.352850   0.555987  -0.039573
    12  H    0.003136  -0.000128  -0.022052   0.352845  -0.039573   0.556012
    13  C   -0.000045  -0.000158   0.352396  -0.056342  -0.008806   0.004802
    14  C   -0.000004   0.000001  -0.056354  -0.020373   0.005786   0.000190
    15  H    0.000000  -0.000000   0.004815   0.000190  -0.000128   0.000004
    16  H   -0.000003   0.000000  -0.008812   0.005789   0.003139  -0.000128
    17  C    0.000000   0.000000  -0.022471   0.006898  -0.000045  -0.000157
    18  C    0.000000   0.000000   0.006897  -0.000165  -0.000004   0.000001
    19  H    0.000000   0.000000  -0.000158   0.000001   0.000000  -0.000000
    20  H    0.000000   0.000000  -0.000046  -0.000004  -0.000003   0.000000
    21  C   -0.000157  -0.000045  -0.032242  -0.000161   0.000000   0.000000
    22  C    0.000001  -0.000004  -0.000161  -0.000012   0.000000   0.000000
    23  H    0.000000  -0.000003   0.000000   0.000000   0.000000   0.000000
    24  H   -0.000000   0.000000   0.000000   0.000000   0.000000   0.000000
              13         14         15         16         17         18
     1  C   -0.000161  -0.000012   0.000000   0.000000   0.006906  -0.000165
     2  H    0.000000   0.000000   0.000000   0.000000  -0.000158   0.000001
     3  H    0.000000   0.000000   0.000000   0.000000  -0.000046  -0.000004
     4  C   -0.032218  -0.000161   0.000000   0.000000  -0.022511   0.006902
     5  C   -0.022483   0.006905  -0.000158  -0.000046  -0.032242  -0.000161
     6  C    0.006901  -0.000165   0.000001  -0.000004  -0.000161  -0.000012
     7  H   -0.000045  -0.000004   0.000000  -0.000003   0.000000   0.000000
     8  H   -0.000158   0.000001  -0.000000   0.000000   0.000000   0.000000
     9  C    0.352396  -0.056354   0.004815  -0.008812  -0.022471   0.006897
    10  C   -0.056342  -0.020373   0.000190   0.005789   0.006898  -0.000165
    11  H   -0.008806   0.005786  -0.000128   0.003139  -0.000045  -0.000004
    12  H    0.004802   0.000190   0.000004  -0.000128  -0.000157   0.000001
    13  C    4.795062   0.625404  -0.022045  -0.022044   0.352396  -0.056342
    14  C    0.625404   5.196834   0.352899   0.352827  -0.056375  -0.020380
    15  H   -0.022045   0.352899   0.555874  -0.039581  -0.008810   0.005786
    16  H   -0.022044   0.352827  -0.039581   0.556032   0.004809   0.000190
    17  C    0.352396  -0.056375  -0.008810   0.004809   4.795309   0.625384
    18  C   -0.056342  -0.020380   0.005786   0.000190   0.625384   5.196796
    19  H    0.004816   0.000190  -0.000128   0.000004  -0.022061   0.352908
    20  H   -0.008825   0.005802   0.003135  -0.000128  -0.022066   0.352841
    21  C   -0.022511   0.006906  -0.000046  -0.000158   0.352490  -0.056416
    22  C    0.006902  -0.000165  -0.000004   0.000001  -0.056416  -0.020404
    23  H   -0.000158   0.000001   0.000000  -0.000000   0.004821   0.000191
    24  H   -0.000046  -0.000004  -0.000003   0.000000  -0.008824   0.005797
              19         20         21         22         23         24
     1  C   -0.000004   0.000001  -0.056375  -0.020380   0.005802   0.000190
     2  H    0.000000  -0.000000   0.004809   0.000190  -0.000128   0.000004
     3  H   -0.000003   0.000000  -0.008810   0.005786   0.003135  -0.000128
     4  C   -0.000046  -0.000158   0.352396  -0.056342  -0.008825   0.004816
     5  C    0.000000   0.000000  -0.022471   0.006897  -0.000046  -0.000158
     6  C    0.000000   0.000000   0.006898  -0.000165  -0.000004   0.000001
     7  H    0.000000   0.000000  -0.000157   0.000001   0.000000  -0.000000
     8  H    0.000000   0.000000  -0.000045  -0.000004  -0.000003   0.000000
     9  C   -0.000158  -0.000046  -0.032242  -0.000161   0.000000   0.000000
    10  C    0.000001  -0.000004  -0.000161  -0.000012   0.000000   0.000000
    11  H    0.000000  -0.000003   0.000000   0.000000   0.000000   0.000000
    12  H   -0.000000   0.000000   0.000000   0.000000   0.000000   0.000000
    13  C    0.004816  -0.008825  -0.022511   0.006902  -0.000158  -0.000046
    14  C    0.000190   0.005802   0.006906  -0.000165   0.000001  -0.000004
    15  H   -0.000128   0.003135  -0.000046  -0.000004   0.000000  -0.000003
    16  H    0.000004  -0.000128  -0.000158   0.000001  -0.000000   0.000000
    17  C   -0.022061  -0.022066   0.352490  -0.056416   0.004821  -0.008824
    18  C    0.352908   0.352841  -0.056416  -0.020404   0.000191   0.005797
    19  H    0.555855  -0.039534  -0.008824   0.005797  -0.000128   0.003129
    20  H   -0.039534   0.555988   0.004821   0.000191   0.000004  -0.000128
    21  C   -0.008824   0.004821   4.795309   0.625384  -0.022066  -0.022061
    22  C    0.005797   0.000191   0.625384   5.196796   0.352841   0.352908
    23  H   -0.000128   0.000004  -0.022066   0.352841   0.555988  -0.039534
    24  H    0.003129  -0.000128  -0.022061   0.352908  -0.039534   0.555855
 Mulliken charges:
               1
     1  C   -0.399752
     2  H    0.148110
     3  H    0.148198
     4  C    0.103503
     5  C    0.103444
     6  C   -0.399739
     7  H    0.148120
     8  H    0.148131
     9  C    0.103444
    10  C   -0.399739
    11  H    0.148131
    12  H    0.148120
    13  C    0.103503
    14  C   -0.399752
    15  H    0.148198
    16  H    0.148110
    17  C    0.103331
    18  C   -0.399640
    19  H    0.148185
    20  H    0.148109
    21  C    0.103331
    22  C   -0.399640
    23  H    0.148109
    24  H    0.148185
 Sum of Mulliken charges =  -0.00000
 Mulliken charges with hydrogens summed into heavy atoms:
               1
     1  C   -0.103444
     4  C    0.103503
     5  C    0.103444
     6  C   -0.103488
     9  C    0.103444
    10  C   -0.103488
    13  C    0.103503
    14  C   -0.103444
    17  C    0.103331
    18  C   -0.103346
    21  C    0.103331
    22  C   -0.103346
 Electronic spatial extent (au):  <R**2>=           1958.1687
 Charge=             -0.0000 electrons
 Dipole moment (field-independent basis, Debye):
    X=              0.0000    Y=             -0.0000    Z=             -0.0002  Tot=              0.0002
 Quadrupole moment (field-independent basis, Debye-Ang):
   XX=            -75.2415   YY=            -64.9129   ZZ=            -64.9128
   XY=              0.0019   XZ=             -0.0000   YZ=             -0.0000
 Traceless Quadrupole moment (field-independent basis, Debye-Ang):
   XX=             -6.8858   YY=              3.4428   ZZ=              3.4430
   XY=              0.0019   XZ=             -0.0000   YZ=             -0.0000
 Octapole moment (field-independent basis, Debye-Ang**2):
  XXX=              0.0000  YYY=              0.0000  ZZZ=              0.0099  XYY=             -0.0000
  XXY=             -0.0000  XXZ=             -0.0074  XZZ=             -0.0000  YZZ=             -0.0000
  YYZ=              0.0033  XYZ=             -0.0055
 Hexadecapole moment (field-independent basis, Debye-Ang**3):
 XXXX=           -194.9978 YYYY=          -1187.6792 ZZZZ=          -1187.9173 XXXY=             -0.0073
 XXXZ=              0.0000 YYYX=             13.9587 YYYZ=              0.0000 ZZZX=              0.0000
 ZZZY=              0.0000 XXYY=           -247.2725 XXZZ=           -247.3283 YYZZ=           -395.9946
 XXYZ=              0.0000 YYXZ=             -0.0000 ZZXY=            -13.9395
 N-N= 6.347082812281D+02 E-N=-2.343542619981D+03  KE= 4.597195118917D+02
 Symmetry A    KE= 2.322398205500D+02
 Symmetry B    KE= 2.274796913417D+02
 No NMR shielding tensors so no spin-rotation constants.
 Leave Link  601 at Fri May 28 14:27:08 2021, MaxMem=  1342177280 cpu:               0.4 elap:               0.1
 (Enter /home/wangzhe/g16/l701.exe)
 ... and contract with generalized density number  0.
 Compute integral first derivatives.
 Leave Link  701 at Fri May 28 14:27:08 2021, MaxMem=  1342177280 cpu:               0.5 elap:               0.1
 (Enter /home/wangzhe/g16/l702.exe)
 L702 exits ... SP integral derivatives will be done elsewhere.
 Leave Link  702 at Fri May 28 14:27:08 2021, MaxMem=  1342177280 cpu:               0.0 elap:               0.0
 (Enter /home/wangzhe/g16/l703.exe)
 Integral derivatives from FoFJK, PRISM(SPDF).
 Compute integral first derivatives, UseDBF=F ICtDFT=           0.
 Calling FoFJK, ICntrl=      2127 FMM=F ISym2X=1 I1Cent= 0 IOpClX= 0 NMat=1 NMatS=1 NMatT=0.
 FoFJK:  IHMeth= 1 ICntrl=    2127 DoSepK=F KAlg= 0 I1Cent=           0 FoldK=F
 IRaf=         0 NMat=       1 IRICut=       1 DoRegI=T DoRafI=F ISym2E= 1 IDoP0=0 IntGTp=1.
 FoFCou: FMM=F IPFlag=           0 FMFlag=      100000 FMFlg1=         800
         NFxFlg=           0 DoJE=F BraDBF=F KetDBF=F FulRan=T
         wScrn=  0.000000 ICntrl=      2127 IOpCl=  0 I1Cent=           0 NGrid=           0
         NMat0=    1 NMatS0=      1 NMatT0=    0 NMatD0=    1 NMtDS0=    0 NMtDT0=    0
 Petite list used in FoFCou.
 Leave Link  703 at Fri May 28 14:27:10 2021, MaxMem=  1342177280 cpu:              15.3 elap:               1.9
 (Enter /home/wangzhe/g16/l716.exe)
 Dipole        = 1.99840144D-15-1.11022302D-15-7.15425247D-05
 ***** Axes restored to original set *****
 -------------------------------------------------------------------
 Center     Atomic                   Forces (Hartrees/Bohr)
 Number     Number              X              Y              Z
 -------------------------------------------------------------------
      1        6          -0.000275664    0.000507671   -0.001466090
      2        1           0.000996994    0.001092393   -0.001174845
      3        1           0.000880229   -0.001592128   -0.000909914
      4        6          -0.011212292   -0.000006431    0.002085124
      5        6           0.011348329    0.002071028    0.001428367
      6        6           0.000298894   -0.001118835   -0.000908367
      7        1          -0.001016829   -0.000581311   -0.001522626
      8        1          -0.000948397   -0.001585205    0.000602035
      9        6          -0.011348329    0.002071028   -0.001428367
     10        6          -0.000298894   -0.001118835    0.000908367
     11        1           0.000948397   -0.001585205   -0.000602035
     12        1           0.001016829   -0.000581311    0.001522626
     13        6           0.011212292   -0.000006431   -0.002085124
     14        6           0.000275664    0.000507671    0.001466090
     15        1          -0.000880229   -0.001592128    0.000909914
     16        1          -0.000996994    0.001092393    0.001174845
     17        6          -0.011330627   -0.002035939   -0.001400662
     18        6          -0.000172230    0.001704988    0.000660786
     19        1           0.000882343    0.000060805    0.001728772
     20        1           0.000930578    0.001482963   -0.000590838
     21        6           0.011330627   -0.002035939    0.001400662
     22        6           0.000172230    0.001704988   -0.000660786
     23        1          -0.000930578    0.001482963    0.000590838
     24        1          -0.000882343    0.000060805   -0.001728772
 -------------------------------------------------------------------
 Cartesian Forces:  Max     0.011348329 RMS     0.003456256
 Leave Link  716 at Fri May 28 14:27:10 2021, MaxMem=  1342177280 cpu:               0.1 elap:               0.0
 (Enter /home/wangzhe/g16/l103.exe)

 GradGradGradGradGradGradGradGradGradGradGradGradGradGradGradGradGradGrad
 Berny optimization.
 FormGI is forming the generalized inverse of G from B-inverse, IUseBI=4.
 Internal  Forces:  Max     0.004108281 RMS     0.001434595
 Search for a local minimum.
 Step number   1 out of a maximum of  118
 All quantities printed in internal units (Hartrees-Bohrs-Radians)
 RMS Force = .14346D-02 SwitMx=.10000D-02 MixMth= 1
 Mixed Optimization -- RFO/linear search
 Second derivative matrix not updated -- first step.
 ITU=  0
     Eigenvalues ---    0.00998   0.01002   0.01027   0.01404   0.01405
     Eigenvalues ---    0.01566   0.01791   0.01791   0.02019   0.02771
     Eigenvalues ---    0.02771   0.02771   0.02771   0.02774   0.02774
     Eigenvalues ---    0.02778   0.02778   0.02778   0.02778   0.02781
     Eigenvalues ---    0.02781   0.16000   0.16000   0.16000   0.16000
     Eigenvalues ---    0.16000   0.16000   0.16000   0.16000   0.16000
     Eigenvalues ---    0.16000   0.16000   0.16000   0.21113   0.21116
     Eigenvalues ---    0.24771   0.24925   0.24925   0.24926   0.24926
     Eigenvalues ---    0.24926   0.24938   0.32025   0.32057   0.32962
     Eigenvalues ---    0.33430   0.33430   0.33490   0.35352   0.35352
     Eigenvalues ---    0.35368   0.35368   0.35411   0.35411   0.35411
     Eigenvalues ---    0.35411   0.35452   0.35452   0.35468   0.35468
     Eigenvalues ---    0.55360   0.55360   0.55360   0.55360   0.55407
     Eigenvalues ---    0.55407
 RFO step:  Lambda=-3.41783670D-03 EMin= 9.97546971D-03
 Linear search not attempted -- first point.
 Iteration  1 RMS(Cart)=  0.03293368 RMS(Int)=  0.00082859
 Iteration  2 RMS(Cart)=  0.00135519 RMS(Int)=  0.00052648
 Iteration  3 RMS(Cart)=  0.00000037 RMS(Int)=  0.00052648
 ITry= 1 IFail=0 DXMaxC= 7.43D-02 DCOld= 1.00D+10 DXMaxT= 3.00D-01 DXLimC= 3.00D+00 Rises=F
 ClnCor:  largest displacement from symmetrization is 1.08D-11 for atom    11.
 Variable       Old X    -DE/DX   Delta X   Delta X   Delta X     New X
                                 (Linear)    (Quad)   (Total)
    R1        2.05082   0.00014   0.00000   0.00039   0.00039   2.05121
    R2        2.04922   0.00072   0.00000   0.00200   0.00200   2.05122
    R3        2.54772  -0.00389   0.00000  -0.00698  -0.00698   2.54075
    R4        2.81603  -0.00068   0.00000  -0.00202  -0.00202   2.81400
    R5        2.81603  -0.00069   0.00000  -0.00204  -0.00204   2.81399
    R6        2.54814  -0.00411   0.00000  -0.00738  -0.00738   2.54076
    R7        2.81500  -0.00039   0.00000  -0.00115  -0.00115   2.81385
    R8        2.05107   0.00004   0.00000   0.00010   0.00010   2.05117
    R9        2.05012   0.00039   0.00000   0.00108   0.00108   2.05121
   R10        2.54814  -0.00411   0.00000  -0.00738  -0.00738   2.54076
   R11        2.81603  -0.00068   0.00000  -0.00202  -0.00202   2.81400
   R12        2.05012   0.00039   0.00000   0.00108   0.00108   2.05121
   R13        2.05107   0.00004   0.00000   0.00010   0.00010   2.05117
   R14        2.54772  -0.00389   0.00000  -0.00698  -0.00698   2.54075
   R15        2.81603  -0.00069   0.00000  -0.00204  -0.00204   2.81399
   R16        2.04922   0.00072   0.00000   0.00200   0.00200   2.05122
   R17        2.05082   0.00014   0.00000   0.00039   0.00039   2.05121
   R18        2.54814  -0.00406   0.00000  -0.00728  -0.00728   2.54086
   R19        2.81500  -0.00039   0.00000  -0.00117  -0.00117   2.81383
   R20        2.04947   0.00061   0.00000   0.00170   0.00170   2.05117
   R21        2.05013   0.00038   0.00000   0.00107   0.00107   2.05119
   R22        2.54814  -0.00406   0.00000  -0.00728  -0.00728   2.54086
   R23        2.05013   0.00038   0.00000   0.00107   0.00107   2.05119
   R24        2.04947   0.00061   0.00000   0.00170   0.00170   2.05117
    A1        2.01943   0.00250   0.00000   0.01556   0.01547   2.03490
    A2        2.13114  -0.00121   0.00000  -0.00714  -0.00723   2.12390
    A3        2.13163  -0.00125   0.00000  -0.00739  -0.00748   2.12415
    A4        2.11168   0.00024   0.00000   0.01094   0.01116   2.12284
    A5        2.11168   0.00022   0.00000   0.01086   0.01108   2.12276
    A6        2.05602  -0.00033   0.00000  -0.01685  -0.01891   2.03711
    A7        2.11146   0.00021   0.00000   0.01082   0.01105   2.12250
    A8        2.05652  -0.00040   0.00000  -0.01717  -0.01921   2.03731
    A9        2.11144   0.00031   0.00000   0.01124   0.01146   2.12290
   A10        2.13168  -0.00127   0.00000  -0.00751  -0.00759   2.12409
   A11        2.13138  -0.00123   0.00000  -0.00723  -0.00731   2.12407
   A12        2.01914   0.00253   0.00000   0.01574   0.01566   2.03480
   A13        2.11144   0.00031   0.00000   0.01124   0.01146   2.12290
   A14        2.05652  -0.00040   0.00000  -0.01717  -0.01921   2.03731
   A15        2.11146   0.00021   0.00000   0.01082   0.01105   2.12250
   A16        2.13138  -0.00123   0.00000  -0.00723  -0.00731   2.12407
   A17        2.13168  -0.00127   0.00000  -0.00751  -0.00759   2.12409
   A18        2.01914   0.00253   0.00000   0.01574   0.01566   2.03480
   A19        2.11168   0.00024   0.00000   0.01094   0.01116   2.12284
   A20        2.05602  -0.00033   0.00000  -0.01685  -0.01891   2.03711
   A21        2.11168   0.00022   0.00000   0.01086   0.01108   2.12276
   A22        2.13163  -0.00125   0.00000  -0.00739  -0.00748   2.12415
   A23        2.13114  -0.00121   0.00000  -0.00714  -0.00723   2.12390
   A24        2.01943   0.00250   0.00000   0.01556   0.01547   2.03490
   A25        2.11146   0.00022   0.00000   0.01087   0.01109   2.12255
   A26        2.05652  -0.00039   0.00000  -0.01718  -0.01922   2.03730
   A27        2.11144   0.00030   0.00000   0.01121   0.01143   2.12287
   A28        2.13129  -0.00123   0.00000  -0.00722  -0.00731   2.12398
   A29        2.13050  -0.00114   0.00000  -0.00670  -0.00679   2.12372
   A30        2.02038   0.00240   0.00000   0.01497   0.01488   2.03526
   A31        2.05652  -0.00039   0.00000  -0.01718  -0.01922   2.03730
   A32        2.11146   0.00022   0.00000   0.01087   0.01109   2.12255
   A33        2.11144   0.00030   0.00000   0.01121   0.01143   2.12287
   A34        2.13050  -0.00114   0.00000  -0.00670  -0.00679   2.12372
   A35        2.13129  -0.00123   0.00000  -0.00722  -0.00731   2.12398
   A36        2.02038   0.00240   0.00000   0.01497   0.01488   2.03526
    D1       -0.02285   0.00037   0.00000   0.01753   0.01776  -0.00509
    D2       -3.06883  -0.00119   0.00000  -0.04375  -0.04398  -3.11281
    D3        3.06881   0.00119   0.00000   0.04373   0.04396   3.11277
    D4        0.02282  -0.00037   0.00000  -0.01755  -0.01777   0.00505
    D5        0.69006  -0.00067   0.00000  -0.01138  -0.01102   0.67903
    D6       -2.54389   0.00086   0.00000   0.04885   0.04873  -2.49515
    D7       -2.54418   0.00087   0.00000   0.04942   0.04933  -2.49485
    D8        0.50506   0.00240   0.00000   0.10965   0.10909   0.61415
    D9        2.54389  -0.00086   0.00000  -0.04891  -0.04880   2.49509
   D10       -0.69006   0.00068   0.00000   0.01150   0.01114  -0.67891
   D11       -0.50506  -0.00240   0.00000  -0.10972  -0.10915  -0.61421
   D12        2.54418  -0.00087   0.00000  -0.04931  -0.04921   2.49497
   D13        3.06916   0.00117   0.00000   0.04300   0.04322   3.11238
   D14       -0.02267   0.00036   0.00000   0.01725   0.01747  -0.00520
   D15        0.02283  -0.00037   0.00000  -0.01763  -0.01785   0.00498
   D16       -3.06901  -0.00118   0.00000  -0.04338  -0.04360  -3.11261
   D17        2.54404  -0.00086   0.00000  -0.04935  -0.04923   2.49481
   D18       -0.50520  -0.00238   0.00000  -0.10956  -0.10898  -0.61419
   D19       -0.68990   0.00067   0.00000   0.01085   0.01052  -0.67938
   D20        2.54404  -0.00086   0.00000  -0.04935  -0.04923   2.49481
   D21       -3.06901  -0.00118   0.00000  -0.04338  -0.04360  -3.11261
   D22        0.02283  -0.00037   0.00000  -0.01763  -0.01785   0.00498
   D23       -0.02267   0.00036   0.00000   0.01725   0.01747  -0.00520
   D24        3.06916   0.00117   0.00000   0.04300   0.04322   3.11238
   D25       -2.54389   0.00086   0.00000   0.04885   0.04873  -2.49515
   D26        0.50506   0.00240   0.00000   0.10965   0.10909   0.61415
   D27        0.69006  -0.00067   0.00000  -0.01138  -0.01102   0.67903
   D28       -2.54418   0.00087   0.00000   0.04942   0.04933  -2.49485
   D29        3.06881   0.00119   0.00000   0.04373   0.04396   3.11277
   D30       -0.02285   0.00037   0.00000   0.01753   0.01776  -0.00509
   D31        0.02282  -0.00037   0.00000  -0.01755  -0.01777   0.00505
   D32       -3.06883  -0.00119   0.00000  -0.04375  -0.04398  -3.11281
   D33        2.54418  -0.00087   0.00000  -0.04931  -0.04921   2.49497
   D34       -0.50506  -0.00240   0.00000  -0.10972  -0.10915  -0.61421
   D35       -0.69006   0.00068   0.00000   0.01150   0.01114  -0.67891
   D36        2.54389  -0.00086   0.00000  -0.04891  -0.04880   2.49509
   D37       -3.06881  -0.00118   0.00000  -0.04349  -0.04371  -3.11252
   D38        0.02235  -0.00035   0.00000  -0.01693  -0.01716   0.00519
   D39       -0.02248   0.00036   0.00000   0.01733   0.01755  -0.00492
   D40        3.06868   0.00119   0.00000   0.04388   0.04411   3.11279
   D41        0.50520   0.00238   0.00000   0.10969   0.10911   0.61431
   D42       -2.54404   0.00086   0.00000   0.04929   0.04917  -2.49487
   D43       -2.54404   0.00086   0.00000   0.04929   0.04917  -2.49487
   D44        0.68990  -0.00067   0.00000  -0.01110  -0.01076   0.67914
   D45        0.02235  -0.00035   0.00000  -0.01693  -0.01716   0.00519
   D46       -3.06881  -0.00118   0.00000  -0.04349  -0.04371  -3.11252
   D47        3.06868   0.00119   0.00000   0.04388   0.04411   3.11279
   D48       -0.02248   0.00036   0.00000   0.01733   0.01755  -0.00492
         Item               Value     Threshold  Converged?
 Maximum Force            0.004108     0.000450     NO 
 RMS     Force            0.001435     0.000300     NO 
 Maximum Displacement     0.074324     0.001800     NO 
 RMS     Displacement     0.034101     0.001200     NO 
 Predicted change in Energy=-1.873123D-03
 Lowest energy point so far.  Saving SCF results.
 GradGradGradGradGradGradGradGradGradGradGradGradGradGradGradGradGradGrad

 Leave Link  103 at Fri May 28 14:27:10 2021, MaxMem=  1342177280 cpu:               0.1 elap:               0.0
 (Enter /home/wangzhe/g16/l202.exe)
                          Input orientation:                          
 ---------------------------------------------------------------------
 Center     Atomic      Atomic             Coordinates (Angstroms)
 Number     Number       Type             X           Y           Z
 ---------------------------------------------------------------------
      1          6           0       -0.640146    3.533184   -0.876968
      2          1           0       -0.863974    4.456699   -0.352340
      3          1           0       -0.864036    2.609745   -0.352222
      4          6           0       -0.136381    3.533253   -2.123529
      5          6           0        0.136275    4.801016   -2.855564
      6          6           0        0.640331    5.880352   -2.232124
      7          1           0        0.864642    6.796438   -2.769371
      8          1           0        0.864240    5.872822   -1.170043
      9          6           0       -0.136275    4.801016   -4.319436
     10          6           0       -0.640331    5.880352   -4.942876
     11          1           0       -0.864240    5.872822   -6.004957
     12          1           0       -0.864642    6.796438   -4.405629
     13          6           0        0.136381    3.533253   -5.051471
     14          6           0        0.640146    3.533184   -6.298032
     15          1           0        0.864036    2.609745   -6.822778
     16          1           0        0.863974    4.456699   -6.822660
     17          6           0       -0.136315    2.265515   -4.319422
     18          6           0       -0.640298    1.186071   -4.942843
     19          1           0       -0.864470    0.270030   -4.405466
     20          1           0       -0.864007    1.193874   -6.004957
     21          6           0        0.136315    2.265515   -2.855578
     22          6           0        0.640298    1.186071   -2.232157
     23          1           0        0.864007    1.193874   -1.170043
     24          1           0        0.864470    0.270030   -2.769534
 ---------------------------------------------------------------------
                    Distance matrix (angstroms):
                    1          2          3          4          5
     1  C    0.000000
     2  H    1.085456   0.000000
     3  H    1.085460   1.846954   0.000000
     4  C    1.344505   2.125854   2.126000   0.000000
     5  C    2.474887   2.717569   3.474047   1.489106   0.000000
     6  C    2.997543   2.797017   4.061282   2.474661   1.344514
     7  H    4.061330   3.782133   5.134134   3.473836   2.125949
     8  H    2.796959   2.379237   3.781989   2.717345   2.125955
     9  C    3.702954   4.047956   4.590216   2.535592   1.489028
    10  C    4.694764   4.811426   5.641012   3.702912   2.474865
    11  H    5.640957   5.827305   6.526950   4.590081   3.473971
    12  H    4.811515   4.680121   5.827392   4.048052   2.717765
    13  C    4.246112   4.892371   4.892508   2.940620   2.535592
    14  C    5.570196   6.202137   6.202254   4.246112   3.702954
    15  H    6.202254   6.947216   6.697337   4.892508   4.590216
    16  H    6.202137   6.697077   6.947216   4.892371   4.047956
    17  C    3.702880   4.590045   4.048055   2.535568   2.940399
    18  C    4.694708   5.640901   4.811518   3.702936   4.245895
    19  H    4.811319   5.827180   4.680070   4.047960   4.892189
    20  H    5.640812   6.526723   5.827358   4.589948   4.891903
    21  C    2.474828   3.473912   2.717717   1.489100   2.535501
    22  C    2.997501   4.061226   2.797145   2.474731   3.702769
    23  H    2.796559   3.781611   2.379003   2.717095   4.047474
    24  H    4.061262   5.134057   3.782247   3.473852   4.589935
                    6          7          8          9         10
     6  C    0.000000
     7  H    1.085433   0.000000
     8  H    1.085453   1.846867   0.000000
     9  C    2.474865   2.717765   3.473971   0.000000
    10  C    2.998045   2.797907   4.061781   1.344514   0.000000
    11  H    4.061781   3.783004   5.134592   2.125955   1.085453
    12  H    2.797907   2.380706   3.783004   2.125949   1.085433
    13  C    3.702912   4.048052   4.590081   1.489106   2.474661
    14  C    4.694764   4.811515   5.640957   2.474887   2.997543
    15  H    5.641012   5.827392   6.526950   3.474047   4.061282
    16  H    4.811426   4.680121   5.827305   2.717569   2.797017
    17  C    4.245826   4.892222   4.892072   2.535501   3.702671
    18  C    5.569945   6.202020   6.201879   3.702769   4.694281
    19  H    6.201899   6.946988   6.696841   4.589935   5.640457
    20  H    6.201643   6.696714   6.946639   4.047474   4.810522
    21  C    3.702671   4.589897   4.047662   2.940399   4.245826
    22  C    4.694281   5.640492   4.810808   4.245895   5.569945
    23  H    4.810522   5.826369   4.678949   4.891903   6.201643
    24  H    5.640457   6.526408   5.826633   4.892189   6.201899
                   11         12         13         14         15
    11  H    0.000000
    12  H    1.846867   0.000000
    13  C    2.717345   3.473836   0.000000
    14  C    2.796959   4.061330   1.344505   0.000000
    15  H    3.781989   5.134134   2.126000   1.085460   0.000000
    16  H    2.379237   3.782133   2.125854   1.085456   1.846954
    17  C    4.047662   4.589897   1.489100   2.474828   2.717717
    18  C    4.810808   5.640492   2.474731   2.997501   2.797145
    19  H    5.826633   6.526408   3.473852   4.061262   3.782247
    20  H    4.678949   5.826369   2.717095   2.796559   2.379003
    21  C    4.892072   4.892222   2.535568   3.702880   4.048055
    22  C    6.201879   6.202020   3.702936   4.694708   4.811518
    23  H    6.946639   6.696714   4.589948   5.640812   5.827358
    24  H    6.696841   6.946988   4.047960   4.811319   4.680070
                   16         17         18         19         20
    16  H    0.000000
    17  C    3.473912   0.000000
    18  C    4.061226   1.344564   0.000000
    19  H    5.134057   2.125929   1.085430   0.000000
    20  H    3.781611   2.125789   1.085445   1.847122   0.000000
    21  C    4.590045   1.489015   2.474875   2.717661   3.473852
    22  C    5.640901   2.474875   2.997958   2.797630   4.061652
    23  H    6.526723   3.473852   4.061652   3.782735   5.134435
    24  H    5.827180   2.717661   2.797630   2.380232   3.782735
                   21         22         23         24
    21  C    0.000000
    22  C    1.344564   0.000000
    23  H    2.125789   1.085445   0.000000
    24  H    2.125929   1.085430   1.847122   0.000000
 Stoichiometry    C12H12
 Framework group  C2[X(C12H12)]
 Deg. of freedom    34
 Full point group                 C2      NOp   2
 RotChk:  IX=2 Diff= 2.05D-01
 Largest Abelian subgroup         C2      NOp   2
 Largest concise Abelian subgroup C2      NOp   2
                         Standard orientation:                         
 ---------------------------------------------------------------------
 Center     Atomic      Atomic             Coordinates (Angstroms)
 Number     Number       Type             X           Y           Z
 ---------------------------------------------------------------------
      1          6           0        0.240872    2.774662   -0.000053
      2          1           0        0.386365    3.326174    0.923462
      3          1           0        0.386410    3.326299   -0.923491
      4          6           0       -0.077063    1.468289    0.000016
      5          6           0       -0.240834    0.704486    1.267779
      6          6           0       -0.829860    1.248359    2.347115
      7          1           0       -0.974005    0.684291    3.263201
      8          1           0       -1.205215    2.266819    2.339585
      9          6           0        0.240834   -0.704486    1.267779
     10          6           0        0.829860   -1.248359    2.347115
     11          1           0        1.205215   -2.266819    2.339585
     12          1           0        0.974005   -0.684291    3.263201
     13          6           0        0.077063   -1.468289    0.000016
     14          6           0       -0.240872   -2.774662   -0.000053
     15          1           0       -0.386410   -3.326299   -0.923491
     16          1           0       -0.386365   -3.326174    0.923462
     17          6           0        0.240872   -0.704466   -1.267722
     18          6           0        0.829823   -1.248331   -2.347166
     19          1           0        0.973811   -0.684155   -3.263207
     20          1           0        1.204984   -2.266852   -2.339363
     21          6           0       -0.240872    0.704466   -1.267722
     22          6           0       -0.829823    1.248331   -2.347166
     23          1           0       -1.204984    2.266852   -2.339363
     24          1           0       -0.973811    0.684155   -3.263207
 ---------------------------------------------------------------------
 Rotational constants (GHZ):           1.1233255           1.1230836           0.6162287
 Leave Link  202 at Fri May 28 14:27:10 2021, MaxMem=  1342177280 cpu:               0.0 elap:               0.0
 (Enter /home/wangzhe/g16/l301.exe)
 Standard basis: 6-31G(d) (6D, 7F)
 Ernie: Thresh=  0.10000D-02 Tol=  0.10000D-05 Strict=F.
 There are   102 symmetry adapted cartesian basis functions of A   symmetry.
 There are   102 symmetry adapted cartesian basis functions of B   symmetry.
 There are   102 symmetry adapted basis functions of A   symmetry.
 There are   102 symmetry adapted basis functions of B   symmetry.
   204 basis functions,   384 primitive gaussians,   204 cartesian basis functions
    42 alpha electrons       42 beta electrons
[...]
 .00001254,0.00002145,0.00004345,0.00000807,-0.00001462,0.00001675,-0.0
 0019737,-0.00010871,0.00035667,-0.00063544,-0.00038602,0.00004165,0.00
 021302,-0.00019983,0.00010275,-0.00003248,-0.00001886,-0.00012497,-0.0
 0000154,-0.00001459,-0.00603124,0.00175680,-0.00269713,-0.00031611,0.0
 0024019,0.00204582,-0.00069986,0.00077180,-0.00006241,0.00013892,0.000
 16696,-0.00049231,0.00180293,-0.01478073,0.00440795,-0.05045391,-0.053
 77138,0.03928421,0.00355757,0.00523869,-0.00313596,0.04317463,0.000000
 61,0.00005276,0.00000716,-0.00001254,0.00001361,0.00000957,0.00000807,
 -0.00000205,-0.00001330,0.00003148,-0.00003448,0.00001762,0.00005469,0
 .00019541,0.00017345,0.00001137,-0.00001665,0.00001464,0.,0.00001403,-
 0.00001806,0.00000396,0.00001582,0.00001522,0.00062081,-0.00012996,-0.
 00086309,0.00063846,0.00004151,-0.00049869,0.00033557,-0.00022174,-0.0
 0050950,-0.00011176,0.00008465,-0.00006416,0.00108434,0.00260581,-0.00
 092043,-0.05618066,-0.27001027,0.11476554,-0.00523925,-0.01545670,0.01
 231742,0.05865207,0.28180295,-0.00000148,-0.00012238,-0.00000983,0.000
 02145,-0.00000957,-0.00002416,-0.00001462,-0.00001330,0.00002325,0.000
 00500,0.00024421,0.00010454,0.00015901,-0.00027835,-0.00049500,0.00007
 642,0.00006611,0.00007689,0.00003746,-0.00007936,-0.00004228,-0.000081
 83,0.00001973,0.00003649,-0.00365120,0.00276554,-0.00001391,-0.0001867
 0,-0.00047417,0.00091184,0.00069141,0.00003347,0.00007069,-0.00010948,
 -0.00008212,0.00011886,0.00747164,0.02476891,-0.01146212,0.03801719,0.
 11002302,-0.11305535,-0.00313613,-0.01231680,0.00905587,-0.04461088,-0
 .12439488,0.11665989,0.00068804,0.00183664,-0.00002539,-0.00065876,0.0
 0024074,0.00024413,0.00035668,0.00005471,0.00015901,0.00279323,-0.0006
 4215,0.00627835,-0.00051892,0.00040061,0.00022878,-0.00000575,-0.00000
 778,-0.00000441,0.00001679,0.00001147,-0.00002971,0.00001675,-0.000019
 98,0.00002477,0.00280338,0.00512760,-0.00369584,0.00068741,0.00089702,
 0.00160299,0.00035647,0.00016537,-0.00003252,-0.00065845,0.00033200,0.
 00008643,-0.06798056,-0.02289645,0.01172703,0.00051068,-0.01359495,0.0
 1496986,-0.00603139,-0.00062083,-0.00365125,0.00901300,0.00018355,0.00
 545146,0.24797713,0.00057882,-0.00490207,-0.00064992,0.00204663,-0.000
 09001,-0.00049962,-0.00063547,0.00019540,-0.00027835,-0.00576145,0.003
 22382,-0.02940654,0.00040057,0.00203356,0.00027590,-0.00001011,-0.0003
 3356,0.00057213,-0.00000461,-0.00004382,0.00001229,0.00019269,0.000183
 02,0.00010794,-0.00512805,-0.03359672,0.00815974,-0.00129777,0.0009333
 1,-0.00281854,-0.00065175,-0.00036787,0.00049897,0.00154630,0.00011928
 ,0.00000097,-0.02158359,-0.17522814,0.04085046,-0.00495240,0.00060487,
 0.01930756,-0.00175681,-0.00012995,-0.00276556,0.00285070,0.00077121,-
 0.00143960,0.18217446,0.67430162,-0.00183234,0.00054996,0.00293642,0.0
 0060443,0.00012176,0.00040698,-0.00038604,0.00017345,-0.00049501,-0.00
 259146,-0.01309279,-0.02132294,0.00022881,0.00027591,0.00173746,-0.000
 00584,0.00057238,-0.00099516,0.00022517,0.00023875,0.00011366,-0.00011
 681,-0.00011896,-0.00011333,-0.00369599,-0.00815964,0.01548918,0.00141
 772,-0.00401923,-0.00289826,-0.00035715,0.00004666,0.00006851,0.001470
 25,-0.00062029,0.00019787,0.01395291,0.04515616,-0.12562065,0.00987356
 ,0.02943771,-0.01886375,-0.00269711,0.00086336,-0.00001402,0.00601904,
 -0.00031279,-0.00171375,0.10517966,0.09364289,0.56617898,0.00038918,-0
 .00059973,-0.00043778,-0.00020283,0.00002473,-0.00018656,0.00004164,0.
 00001137,0.00007643,0.00068869,0.00187683,0.00041537,-0.00000574,-0.00
 001011,-0.00000584,-0.00000275,-0.00004819,-0.00002780,-0.00001488,0.0
 0000159,0.00000021,-0.00001489,0.00000096,0.00000127,0.00068746,0.0012
 9783,0.00141779,0.00038926,-0.00067921,-0.00030052,0.00004158,0.000071
 77,-0.00002834,-0.00020279,-0.00014926,0.00011473,0.00051025,-0.011025
 93,-0.00064769,-0.00012787,-0.00101246,-0.00125148,-0.00031620,-0.0006
 3849,-0.00018667,0.00030617,-0.00006911,-0.00030856,-0.12849495,-0.151
 14713,-0.08727106,0.22686446,0.00007917,0.00037997,-0.00044959,-0.0003
 3159,0.00004564,0.00001139,0.00021302,-0.00001665,0.00006610,0.0009405
 0,0.00102191,0.00276992,-0.00000778,-0.00033355,0.00057236,-0.00004818
 ,0.00013083,-0.00025814,0.00006036,0.00005570,0.00000886,-0.00005143,-
 0.00004405,-0.00006307,-0.00089698,0.00093334,0.00401919,0.00067920,-0
 .00156382,-0.00067237,-0.00006652,0.00008844,-0.00004608,0.00024831,-0
 .00022208,0.00007740,-0.01976456,-0.03510092,-0.00130667,0.00057673,-0
 .00177132,-0.00688848,-0.00024014,0.00004156,0.00047420,0.00084897,0.0
 0020455,0.00040548,-0.14692083,-0.35537861,-0.14370852,0.23641060,0.69
 309690,0.00073838,-0.00179466,-0.00091569,0.00047810,-0.00007716,-0.00
 027341,-0.00019984,0.00001463,0.00007689,-0.00157777,0.00397000,-0.002
 98476,-0.00000442,0.00057209,-0.00099513,-0.00002780,-0.00025814,0.000
 42887,-0.00009421,-0.00012064,-0.00001277,0.00009938,0.00006646,0.0000
 8702,0.00160307,0.00281855,-0.00289828,-0.00030051,0.00067239,0.001027
 82,0.00028427,0.00000538,-0.00002826,-0.00052625,0.00016590,-0.0000056
 5,0.00429001,0.00882320,0.01684505,0.00150312,0.00322086,-0.00388794,0
 .00204591,0.00049872,0.00091185,-0.00135395,0.00017984,-0.00081077,-0.
 08483293,-0.14371197,-0.18945367,0.13647918,0.01918639,0.67095004,0.00
 004177,0.00027961,-0.00008438,-0.00012493,0.00001187,0.00000864,0.0001
 0276,0.00000001,0.00003746,0.00035703,0.00001685,0.00074323,0.00001679
 ,-0.00000461,0.00022516,-0.00001488,0.00006037,-0.00009421,0.00004342,
 0.00001668,0.00000032,-0.00003225,-0.00001230,-0.00002158,-0.00065848,
 -0.00154632,0.00147023,-0.00020279,-0.00024831,-0.00052625,-0.00012493
 ,-0.00006892,0.00004441,0.00034816,-0.00002224,-0.00000960,0.00901213,
 -0.00378759,-0.00547858,0.00030636,0.00159669,-0.00005788,0.00013895,0
 .00011177,-0.00010949,-0.00038167,-0.00009677,-0.00027252,0.00181142,-
 0.01121873,0.01060451,-0.05045807,-0.06092778,0.02695206,0.04316164,-0
 .00006054,0.00001843,0.00008642,0.00007291,0.00001622,0.00001996,-0.00
 003248,0.00001404,-0.00007937,-0.00011096,-0.00027674,-0.00055118,0.00
 001148,-0.00004383,0.00023876,0.00000159,0.00005570,-0.00012065,0.0000
 1668,0.00002843,0.00000430,-0.00002483,-0.00001470,-0.00002591,-0.0003
 3202,0.00011926,0.00062033,0.00014925,-0.00022210,-0.00016592,-0.00001
 339,0.00004645,-0.00000250,0.00002224,-0.00005268,0.00002670,-0.004630
 87,-0.00033238,-0.00207677,0.00023251,-0.00081070,-0.00018080,-0.00016
 697,0.00008467,0.00008211,0.00018775,0.00004479,0.00029515,-0.00592999
 ,-0.01826458,0.01271794,-0.06104226,-0.24959982,0.12178606,0.06799682,
 0.26563229,-0.00004818,0.00003484,0.00004157,0.00003748,0.00001545,0.0
 0003610,-0.00001886,-0.00001806,-0.00004228,-0.00012706,-0.00009932,-0
 .00002267,-0.00002971,0.00001229,0.00011365,0.00000021,0.00000886,-0.0
 0001277,0.00000032,0.00000430,-0.00000724,0.00000015,-0.00000678,0.000
 00417,0.00008643,-0.00000094,0.00019785,0.00011474,-0.00007740,-0.0000
 0564,0.00000597,0.00000204,0.00000586,-0.00000960,-0.00002670,0.000025
 66,-0.00288488,-0.00095093,-0.00060894,0.00021409,-0.00040598,0.000204
 11,-0.00049233,0.00006416,0.00011886,0.00022009,0.00010504,0.00027574,
 -0.00467076,-0.01297641,0.00942200,0.02967319,0.12653911,-0.13343197,-
 0.02853012,-0.13369686,0.13277374,-0.00020274,-0.00057991,0.00004810,0
 .00034817,-0.00001946,-0.00001451,-0.00012497,0.00000396,-0.00008183,-
 0.00065871,0.00050017,-0.00207449,0.00001675,0.00019268,-0.00011680,-0
 .00001489,-0.00005143,0.00009938,-0.00003225,-0.00002483,0.00000015,0.
 00004342,0.00000861,0.00001429,0.00035648,0.00065176,-0.00035717,0.000
 04159,0.00006653,0.00028427,0.00010271,0.00003265,-0.00001863,-0.00012
 494,0.00001339,0.00000597,-0.00602924,0.00145512,0.00286909,-0.0003100
 2,-0.00188976,-0.00081640,-0.00069987,-0.00033557,0.00069141,0.0001387
 5,0.00034298,0.00039066,0.00180869,0.00357192,-0.01501629,-0.05045134,
 -0.00712727,-0.06622740,0.00355914,0.00009606,0.00610763,0.04315778,0.
 00017395,-0.00016508,-0.00011031,0.00000277,0.00000607,-0.00006064,-0.
 00000154,0.00001582,0.00001973,-0.00009098,0.00044629,-0.00018934,-0.0
 0001998,0.00018301,-0.00011895,0.00000096,-0.00004405,0.00006646,-0.00
 001230,-0.00001470,-0.00000678,0.00000861,0.00000541,0.00001760,-0.000
 16536,-0.00036786,-0.00004666,-0.00007177,0.00008845,-0.00000538,-0.00
 003265,-0.00007087,0.00003047,0.00006892,0.00004645,-0.00000204,0.0028
 5250,0.00078683,-0.00223998,-0.00015537,0.00027361,0.00060650,-0.00077
 184,-0.00022173,-0.00003346,0.00015031,0.00004682,0.00006001,-0.007014
 61,0.00238145,-0.02489975,-0.00482682,-0.05494278,0.01416112,0.0053370
 8,0.00292682,0.02293040,0.00930593,0.05020933,0.00007189,-0.00019889,-
 0.00006263,0.00002408,-0.00000722,-0.00003312,-0.00001459,0.00001522,0
 .00003649,-0.00033068,0.00043162,-0.00012911,0.00002477,0.00010793,-0.
 00011334,0.00000127,-0.00006307,0.00008701,-0.00002158,-0.00002591,0.0
 0000417,0.00001429,0.00001760,0.00001580,-0.00003253,-0.00049895,0.000
 06853,-0.00002833,0.00004607,-0.00002826,-0.00001863,-0.00003047,0.000
 04218,0.00004440,0.00000250,0.00000586,0.00236444,0.00139444,-0.000924
 01,0.00064706,0.00063139,0.00068034,-0.00006239,0.00050951,0.00007070,
 -0.00004224,0.00004221,0.00015655,-0.00280033,0.00079404,-0.01122805,-
 0.06768943,0.00940652,-0.32808423,-0.00297015,-0.00170303,-0.00932912,
 0.07313763,-0.00932336,0.34819857,0.00051068,0.01359495,0.01496986,0.0
 0901300,-0.00018355,0.00545146,-0.00603139,0.00062083,-0.00365125,-0.0
 6798056,0.02289645,0.01172703,0.00280338,-0.00512760,-0.00369584,0.000
 68741,-0.00089702,0.00160299,-0.00065845,-0.00033200,0.00008643,0.0003
 5647,-0.00016537,-0.00003252,-0.00051892,-0.00040061,0.00022878,-0.000
 00575,0.00000778,-0.00000441,0.00001675,0.00001998,0.00002477,0.000016
 79,-0.00001147,-0.00002971,0.00279323,0.00064215,0.00627835,0.00068804
 ,-0.00183664,-0.00002539,0.00035668,-0.00005471,0.00015901,-0.00065876
 ,-0.00024074,0.00024413,-0.06798243,0.00128277,-0.02566745,0.00050988,
 -0.00616673,-0.01926097,-0.00603050,0.00347465,0.00128643,0.00901215,-
 0.00481413,-0.00256735,0.24797713,0.00495240,0.00060487,-0.01930756,-0
 .00285070,0.00077121,0.00143960,0.00175681,-0.00012995,0.00276556,0.02
 158359,-0.17522814,-0.04085046,0.00512805,-0.03359672,-0.00815974,0.00
 129777,0.00093331,0.00281854,-0.00154630,0.00011928,-0.00000097,0.0006
 5175,-0.00036787,-0.00049897,-0.00040057,0.00203356,-0.00027590,0.0000
 1011,-0.00033356,-0.00057213,-0.00019269,0.00018302,-0.00010794,0.0000
 0461,-0.00004382,-0.00001229,0.00576145,0.00322382,0.02940654,-0.00057
 882,-0.00490207,0.00064992,0.00063547,0.00019540,0.00027835,-0.0020466
 3,-0.00009001,0.00049962,-0.00128277,-0.10080766,-0.00214505,-0.006075
 22,0.00711063,-0.02568061,0.00321063,-0.00086506,-0.00129709,-0.006638
 43,-0.00185012,-0.00120086,-0.18217446,0.67430162,0.00987356,-0.029437
 71,-0.01886375,0.00601904,0.00031279,-0.00171375,-0.00269711,-0.000863
 36,-0.00001402,0.01395291,-0.04515616,-0.12562065,-0.00369599,0.008159
 64,0.01548918,0.00141772,0.00401923,-0.00289826,0.00147025,0.00062029,
 0.00019787,-0.00035715,-0.00004666,0.00006851,0.00022881,-0.00027591,0
 .00173746,-0.00000584,-0.00057238,-0.00099516,-0.00011681,0.00011896,-
 0.00011333,0.00022517,-0.00023875,0.00011366,-0.00259146,0.01309279,-0
 .02132294,-0.00183234,-0.00054996,0.00293642,-0.00038604,-0.00017345,-
 0.00049501,0.00060443,-0.00012176,0.00040698,-0.02566745,0.00214505,-0
 .20009486,-0.00922386,-0.01555043,-0.02536784,-0.00017374,0.00234482,0
 .00072071,-0.00054093,-0.00007449,0.00090952,0.10517966,-0.09364289,0.
 56617898,-0.00012787,0.00101246,-0.00125148,0.00030617,0.00006911,-0.0
 0030856,-0.00031620,0.00063849,-0.00018667,0.00051025,0.01102593,-0.00
 064769,0.00068746,-0.00129783,0.00141779,0.00038926,0.00067921,-0.0003
 0052,-0.00020279,0.00014926,0.00011473,0.00004158,-0.00007177,-0.00002
 834,-0.00000574,0.00001011,-0.00000584,-0.00000275,0.00004819,-0.00002
 780,-0.00001489,-0.00000096,0.00000127,-0.00001488,-0.00000159,0.00000
 021,0.00068869,-0.00187683,0.00041537,0.00038918,0.00059973,-0.0004377
 8,0.00004164,-0.00001137,0.00007643,-0.00020283,-0.00002473,-0.0001865
 6,0.00050988,0.00607522,-0.00922386,-0.00012859,0.00158970,-0.00025057
 ,-0.00031383,0.00048039,-0.00045633,0.00030618,0.00030164,0.00009432,-
 0.12849495,0.15114713,-0.08727106,0.22686446,-0.00057673,-0.00177132,0
 .00688848,-0.00084897,0.00020455,-0.00040548,0.00024014,0.00004156,-0.
 00047420,0.01976456,-0.03510092,0.00130667,0.00089698,0.00093334,-0.00
 401919,-0.00067920,-0.00156382,0.00067237,-0.00024831,-0.00022208,-0.0
 0007740,0.00006652,0.00008844,0.00004608,0.00000778,-0.00033355,-0.000
 57236,0.00004818,0.00013083,0.00025814,0.00005143,-0.00004405,0.000063
 07,-0.00006036,0.00005570,-0.00000886,-0.00094050,0.00102191,-0.002769
 92,-0.00007917,0.00037997,0.00044959,-0.00021302,-0.00001665,-0.000066
 10,0.00033159,0.00004564,-0.00001139,0.00616673,0.00711063,0.01555043,
 -0.00158970,-0.00494764,-0.00505313,-0.00165111,0.00111504,0.00012017,
 0.00074786,-0.00030328,-0.00047345,0.14692083,-0.35537861,0.14370852,-
 0.23641060,0.69309690,0.00150312,-0.00322086,-0.00388794,-0.00135395,-
 0.00017984,-0.00081077,0.00204591,-0.00049872,0.00091185,0.00429001,-0
 .00882320,0.01684505,0.00160307,-0.00281855,-0.00289828,-0.00030051,-0
 .00067239,0.00102782,-0.00052625,-0.00016590,-0.00000565,0.00028427,-0
 .00000538,-0.00002826,-0.00000442,-0.00057209,-0.00099513,-0.00002780,
 0.00025814,0.00042887,0.00009938,-0.00006646,0.00008702,-0.00009421,0.
 00012064,-0.00001277,-0.00157777,-0.00397000,-0.00298476,0.00073838,0.
 00179466,-0.00091569,-0.00019984,-0.00001463,0.00007689,0.00047810,0.0
 0007716,-0.00027341,-0.01926097,0.02568061,-0.02536784,-0.00025057,0.0
 0505313,-0.00071140,-0.00122860,0.00014390,-0.00016267,0.00141175,-0.0
 0069861,-0.00030310,-0.08483293,0.14371197,-0.18945367,0.13647918,-0.0
 1918639,0.67095004,-0.00031002,0.00188976,-0.00081640,0.00013875,-0.00
 034298,0.00039066,-0.00069987,0.00033557,0.00069141,-0.00602924,-0.001
 45512,0.00286909,0.00035648,-0.00065176,-0.00035717,0.00004159,-0.0000
 6653,0.00028427,-0.00012494,-0.00001339,0.00000597,0.00010271,-0.00003
 265,-0.00001863,0.00001675,-0.00019268,-0.00011680,-0.00001489,0.00005
 143,0.00009938,0.00004342,-0.00000861,0.00001429,-0.00003225,0.0000248
 3,0.00000015,-0.00065871,-0.00050017,-0.00207449,-0.00020274,0.0005799
 1,0.00004810,-0.00012497,-0.00000396,-0.00008183,0.00034817,0.00001946
 ,-0.00001451,0.00901215,0.00663843,-0.00054093,0.00030618,-0.00074786,
 0.00141175,0.00013892,0.00003854,0.00015159,-0.00038174,0.00028439,0.0
 0005254,0.00180869,-0.00357192,-0.01501629,-0.05045134,0.00712727,-0.0
 6622740,0.04315778,0.00015537,0.00027361,-0.00060650,-0.00015031,0.000
 04682,-0.00006001,0.00077184,-0.00022173,0.00003346,-0.00285250,0.0007
 8683,0.00223998,0.00016536,-0.00036786,0.00004666,0.00007177,0.0000884
 5,0.00000538,-0.00006892,0.00004645,0.00000204,0.00003265,-0.00007087,
 -0.00003047,0.00001998,0.00018301,0.00011895,-0.00000096,-0.00004405,-
 0.00006646,-0.00000861,0.00000541,-0.00001760,0.00001230,-0.00001470,0
 .00000678,0.00009098,0.00044629,0.00018934,-0.00017395,-0.00016508,0.0
 0011031,0.00000154,0.00001582,-0.00001973,-0.00000277,0.00000607,0.000
 06064,0.00481413,-0.00185012,0.00007449,-0.00030164,-0.00030328,0.0006
 9861,0.00050971,0.00017295,-0.00001262,-0.00028439,0.00039115,0.000095
 14,0.00701461,0.00238145,0.02489975,0.00482682,-0.05494278,-0.01416112
 ,-0.00930593,0.05020933,0.00064706,-0.00063139,0.00068034,-0.00004224,
 -0.00004221,0.00015655,-0.00006239,-0.00050951,0.00007070,0.00236444,-
 0.00139444,-0.00092401,-0.00003253,0.00049895,0.00006853,-0.00002833,-
 0.00004607,-0.00002826,0.00004440,-0.00000250,0.00000586,-0.00001863,0
 .00003047,0.00004218,0.00002477,-0.00010793,-0.00011334,0.00000127,0.0
 0006307,0.00008701,0.00001429,-0.00001760,0.00001580,-0.00002158,0.000
 02591,0.00000417,-0.00033068,-0.00043162,-0.00012911,0.00007189,0.0001
 9889,-0.00006263,-0.00001459,-0.00001522,0.00003649,0.00002408,0.00000
 722,-0.00003312,-0.00256735,0.00120086,0.00090952,0.00009432,0.0004734
 5,-0.00030310,0.00010154,-0.00003102,0.00003003,0.00005254,-0.00009514
 ,-0.00007078,-0.00280033,-0.00079404,-0.01122805,-0.06768943,-0.009406
 52,-0.32808423,0.07313763,0.00932336,0.34819857,0.00030636,-0.00159669
 ,-0.00005788,-0.00038167,0.00009677,-0.00027252,0.00013895,-0.00011177
 ,-0.00010949,0.00901213,0.00378759,-0.00547858,-0.00065848,0.00154632,
 0.00147023,-0.00020279,0.00024831,-0.00052625,0.00034816,0.00002224,-0
 .00000960,-0.00012493,0.00006892,0.00004441,0.00001679,0.00000461,0.00
 022516,-0.00001488,-0.00006037,-0.00009421,-0.00003225,0.00001230,-0.0
 0002158,0.00004342,-0.00001668,0.00000032,0.00035703,-0.00001685,0.000
 74323,0.00004177,-0.00027961,-0.00008438,0.00010276,-0.00000001,0.0000
 3746,-0.00012493,-0.00001187,0.00000864,-0.00603050,-0.00321063,-0.000
 17374,-0.00031383,0.00165111,-0.00122860,-0.00069615,-0.00043659,-0.00
 063048,0.00013892,-0.00050971,0.00010154,0.00181142,0.01121873,0.01060
 451,-0.05045807,0.06092778,0.02695206,0.00355914,-0.00533708,-0.002970
 15,0.04316164,-0.00023251,-0.00081070,0.00018080,-0.00018775,0.0000447
 9,-0.00029515,0.00016697,0.00008467,-0.00008211,0.00463087,-0.00033238
 ,0.00207677,0.00033202,0.00011926,-0.00062033,-0.00014925,-0.00022210,
 0.00016592,-0.00002224,-0.00005268,-0.00002670,0.00001339,0.00004645,0
 .00000250,-0.00001148,-0.00004383,-0.00023876,-0.00000159,0.00005570,0
 .00012065,0.00002483,-0.00001470,0.00002591,-0.00001668,0.00002843,-0.
 00000430,0.00011096,-0.00027674,0.00055118,0.00006054,0.00001843,-0.00
 008642,0.00003248,0.00001404,0.00007937,-0.00007291,0.00001622,-0.0000
 1996,-0.00347465,-0.00086506,-0.00234482,-0.00048039,0.00111504,-0.000
 14390,0.00043659,0.00020751,-0.00026758,-0.00003854,0.00017295,0.00003
 102,0.00592999,-0.01826458,-0.01271794,0.06104226,-0.24959982,-0.12178
 606,-0.00009606,0.00292682,0.00170303,-0.06799682,0.26563229,0.0002140
 9,0.00040598,0.00020411,0.00022009,-0.00010504,0.00027574,-0.00049233,
 -0.00006416,0.00011886,-0.00288488,0.00095093,-0.00060894,0.00008643,0
 .00000094,0.00019785,0.00011474,0.00007740,-0.00000564,-0.00000960,0.0
 0002670,0.00002566,0.00000597,-0.00000204,0.00000586,-0.00002971,-0.00
 001229,0.00011365,0.00000021,-0.00000886,-0.00001277,0.00000015,0.0000
 0678,0.00000417,0.00000032,-0.00000430,-0.00000724,-0.00012706,0.00009
 932,-0.00002267,-0.00004818,-0.00003484,0.00004157,-0.00001886,0.00001
 806,-0.00004228,0.00003748,-0.00001545,0.00003610,0.00128643,0.0012970
 9,0.00072071,-0.00045633,-0.00012017,-0.00016267,-0.00063048,0.0002675
 8,-0.00034674,0.00015159,0.00001262,0.00003003,-0.00467076,0.01297641,
 0.00942200,0.02967319,-0.12653911,-0.13343197,0.00610763,-0.02293040,-
 0.00932912,-0.02853012,0.13369686,0.13277374\\-0.00003498,0.00000404,-
 0.00010587,0.00001733,-0.00000855,0.00003990,0.00001809,0.00000712,0.0
 0003830,-0.00008607,-0.00000490,0.00003703,0.00007914,0.00003812,0.000
 02558,0.00002774,-0.00008437,-0.00004782,-0.00000936,0.00002594,0.0000
 2786,-0.00001387,0.00003475,0.00000796,-0.00007914,0.00003812,-0.00002
 558,-0.00002774,-0.00008437,0.00004782,0.00001387,0.00003475,-0.000007
 96,0.00000936,0.00002594,-0.00002786,0.00008607,-0.00000490,-0.0000370
 3,0.00003498,0.00000404,0.00010587,-0.00001809,0.00000712,-0.00003830,
 -0.00001733,-0.00000855,-0.00003990,-0.00008357,-0.00004151,-0.0000219
 1,-0.00002670,0.00009270,0.00004804,0.00001044,-0.00002609,-0.00002823
 ,0.00001417,-0.00003725,-0.00000755,0.00008357,-0.00004151,0.00002191,
 0.00002670,0.00009270,-0.00004804,-0.00001417,-0.00003725,0.00000755,-
 0.00001044,-0.00002609,0.00002823\\\@


 TO ERR IS HUMAN - AND TO BLAME IT ON A COMPUTER IS EVEN MORE SO.
 Job cpu time:       0 days  0 hours  9 minutes 35.5 seconds.
 Elapsed time:       0 days  0 hours  1 minutes 12.3 seconds.
 File lengths (MBytes):  RWF=     77 Int=      0 D2E=      0 Chk=      5 Scr=      1
 Normal termination of Gaussian 16 at Fri May 28 14:28:45 2021.
