 Entering Gaussian System, Link 0=g16
 Initial command:
 /Applications/g16/l1.exe "/Applications/g16/Scratch/Gau-20571.inp" -scrdir="/Applications/g16/Scratch/"
 Entering Link 1 = /Applications/g16/l1.exe PID=     20573.
  
 Copyright (c) 1988-2017, Gaussian, Inc.  All Rights Reserved.
  
 This is part of the Gaussian(R) 16 program.  It is based on
 the Gaussian(R) 09 system (copyright 2009, Gaussian, Inc.),
 the Gaussian(R) 03 system (copyright 2003, Gaussian, Inc.),
 the Gaussian(R) 98 system (copyright 1998, Gaussian, Inc.),
 the Gaussian(R) 94 system (copyright 1995, Gaussian, Inc.),
 the Gaussian 92(TM) system (copyright 1992, Gaussian, Inc.),
 the Gaussian 90(TM) system (copyright 1990, Gaussian, Inc.),
 the Gaussian 88(TM) system (copyright 1988, Gaussian, Inc.),
 the Gaussian 86(TM) system (copyright 1986, Carnegie Mellon
 University), and the Gaussian 82(TM) system (copyright 1983,
 Carnegie Mellon University). Gaussian is a federally registered
 trademark of Gaussian, Inc.
  
 This software contains proprietary and confidential information,
 including trade secrets, belonging to Gaussian, Inc.
  
 This software is provided under written license and may be
 used, copied, transmitted, or stored only in accord with that
 written license.
  
 The following legend is applicable only to US Government
 contracts under FAR:
  
                    RESTRICTED RIGHTS LEGEND
  
 Use, reproduction and disclosure by the US Government is
 subject to restrictions as set forth in subparagraphs (a)
 and (c) of the Commercial Computer Software - Restricted
 Rights clause in FAR 52.227-19.
  
 Gaussian, Inc.
 340 Quinnipiac St., Bldg. 40, Wallingford CT 06492
  
  
 ---------------------------------------------------------------
 Warning -- This program may not be used in any manner that
 competes with the business of Gaussian, Inc. or will provide
 assistance to any competitor of Gaussian, Inc.  The licensee
 of this program is prohibited from giving any competitor of
 Gaussian, Inc. access to this program.  By using this program,
 the user acknowledges that Gaussian, Inc. is engaged in the
 business of creating and licensing software in the field of
 computational chemistry and represents and warrants to the
 licensee that it is not a competitor of Gaussian, Inc. and that
 it will not use this program in any manner prohibited above.
 ---------------------------------------------------------------
  

 Cite this work as:
 Gaussian 16, Revision B.01,
 M. J. Frisch, G. W. Trucks, H. B. Schlegel, G. E. Scuseria, 
 M. A. Robb, J. R. Cheeseman, G. Scalmani, V. Barone, 
 G. A. Petersson, H. Nakatsuji, X. Li, M. Caricato, A. V. Marenich, 
 J. Bloino, B. G. Janesko, R. Gomperts, B. Mennucci, H. P. Hratchian, 
 J. V. Ortiz, A. F. Izmaylov, J. L. Sonnenberg, D. Williams-Young, 
 F. Ding, F. Lipparini, F. Egidi, J. Goings, B. Peng, A. Petrone, 
 T. Henderson, D. Ranasinghe, V. G. Zakrzewski, J. Gao, N. Rega, 
 G. Zheng, W. Liang, M. Hada, M. Ehara, K. Toyota, R. Fukuda, 
 J. Hasegawa, M. Ishida, T. Nakajima, Y. Honda, O. Kitao, H. Nakai, 
 T. Vreven, K. Throssell, J. A. Montgomery, Jr., J. E. Peralta, 
 F. Ogliaro, M. J. Bearpark, J. J. Heyd, E. N. Brothers, K. N. Kudin, 
 V. N. Staroverov, T. A. Keith, R. Kobayashi, J. Normand, 
 K. Raghavachari, A. P. Rendell, J. C. Burant, S. S. Iyengar, 
 J. Tomasi, M. Cossi, J. M. Millam, M. Klene, C. Adamo, R. Cammi, 
 J. W. Ochterski, R. L. Martin, K. Morokuma, O. Farkas, 
 J. B. Foresman, and D. J. Fox, Gaussian, Inc., Wallingford CT, 2016.
 
 ******************************************
 Gaussian 16:  EM64M-G16RevB.01 20-Dec-2017
                 2-Jun-2021 
 ******************************************
 %nprocshared=6
 Will use up to    6 processors via shared memory.
 %mem=8GB
 %chk=drch_5_1.chk
 -------------
 #p rhf/sto-3g
 -------------
 1/38=1,172=1/1;
 2/12=2,17=6,18=5,40=1/2;
 3/6=3,11=1,25=1,30=1,116=1/1,2,3;
 4//1;
 5/5=2,38=5/2;
 6/7=2,8=2,9=2,10=2,28=1/1;
 99/5=1,9=1/99;
 Leave Link    1 at Wed Jun  2 22:27:00 2021, MaxMem=  1073741824 cpu:               0.1 elap:               0.0
 (Enter /Applications/g16/l101.exe)
 -------------------
 Title Card Required
 -------------------
 Symbolic Z-matrix:
 Charge =  0 Multiplicity = 1
 C                     1.02487   0.77202  -0.09102 
 C                     1.02487  -0.77203   0.09102 
 C                    -0.40844  -1.17472  -0.07883 
 C                    -1.3432    0.       0. 
 C                    -0.40843   1.17472   0.07884 
 H                     1.69752   1.27869   0.61569 
 H                     1.39869   1.03763  -1.09642 
 H                     1.3987   -1.03764   1.09641 
 H                     1.6975   -1.2787   -0.6157 
 H                    -2.02286   0.05396  -0.87312 
 H                    -2.02289  -0.05394   0.87309 
 H                    -0.74233   2.20665   0.11941 
 H                    -0.74234  -2.20665  -0.11939 
 
 ITRead=  0  0  0  0  0  0  0  0  0  0  0  0  0
 MicOpt= -1 -1 -1 -1 -1 -1 -1 -1 -1 -1 -1 -1 -1
 NAtoms=     13 NQM=       13 NQMF=       0 NMMI=      0 NMMIF=      0
                NMic=       0 NMicF=      0.
                    Isotopes and Nuclear Properties:
 (Nuclear quadrupole moments (NQMom) in fm**2, nuclear magnetic moments (NMagM)
  in nuclear magnetons)

  Atom         1           2           3           4           5           6           7           8           9          10
 IAtWgt=          12          12          12          12          12           1           1           1           1           1
 AtmWgt=  12.0000000  12.0000000  12.0000000  12.0000000  12.0000000   1.0078250   1.0078250   1.0078250   1.0078250   1.0078250
 NucSpn=           0           0           0           0           0           1           1           1           1           1
 AtZEff=  -0.0000000  -0.0000000  -0.0000000  -0.0000000  -0.0000000  -0.0000000  -0.0000000  -0.0000000  -0.0000000  -0.0000000
 NQMom=    0.0000000   0.0000000   0.0000000   0.0000000   0.0000000   0.0000000   0.0000000   0.0000000   0.0000000   0.0000000
 NMagM=    0.0000000   0.0000000   0.0000000   0.0000000   0.0000000   2.7928460   2.7928460   2.7928460   2.7928460   2.7928460
 AtZNuc=   6.0000000   6.0000000   6.0000000   6.0000000   6.0000000   1.0000000   1.0000000   1.0000000   1.0000000   1.0000000

  Atom        11          12          13
 IAtWgt=           1           1           1
 AtmWgt=   1.0078250   1.0078250   1.0078250
 NucSpn=           1           1           1
 AtZEff=  -0.0000000  -0.0000000  -0.0000000
 NQMom=    0.0000000   0.0000000   0.0000000
 NMagM=    2.7928460   2.7928460   2.7928460
 AtZNuc=   1.0000000   1.0000000   1.0000000
 Leave Link  101 at Wed Jun  2 22:27:00 2021, MaxMem=  1073741824 cpu:               0.6 elap:               0.1
 (Enter /Applications/g16/l202.exe)
                          Input orientation:                          
 ---------------------------------------------------------------------
 Center     Atomic      Atomic             Coordinates (Angstroms)
 Number     Number       Type             X           Y           Z
 ---------------------------------------------------------------------
      1          6           0        1.024872    0.772022   -0.091024
      2          6           0        1.024868   -0.772027    0.091022
      3          6           0       -0.408439   -1.174719   -0.078831
      4          6           0       -1.343203    0.000004   -0.000004
      5          6           0       -0.408430    1.174721    0.078841
      6          1           0        1.697516    1.278691    0.615685
      7          1           0        1.398694    1.037633   -1.096417
      8          1           0        1.398700   -1.037644    1.096409
      9          1           0        1.697501   -1.278699   -0.615696
     10          1           0       -2.022861    0.053956   -0.873123
     11          1           0       -2.022885   -0.053944    0.873094
     12          1           0       -0.742327    2.206653    0.119410
     13          1           0       -0.742342   -2.206650   -0.119391
 ---------------------------------------------------------------------
                    Distance matrix (angstroms):
                    1          2          3          4          5
     1  C    0.000000
     2  C    1.554744   0.000000
     3  C    2.417505   1.498459   0.000000
     4  C    2.492404   2.492404   1.503320   0.000000
     5  C    1.498458   2.417503   2.354725   1.503322   0.000000
     6  H    1.099364   2.221074   3.307056   3.355605   2.175780
     7  H    1.105037   2.196503   3.032443   3.129983   2.160028
     8  H    2.196505   1.105037   2.160030   3.129995   3.032445
     9  H    2.221073   1.099364   2.175780   3.355598   3.307053
    10  H    3.227379   3.301587   2.178738   1.107783   2.183744
    11  H    3.301601   3.227395   2.183743   1.107781   2.178743
    12  H    2.285922   3.463570   3.403595   2.290112   1.085365
    13  H    3.463573   2.285924   1.085365   2.290111   3.403596
                    6          7          8          9         10
     6  H    0.000000
     7  H    1.754622   0.000000
     8  H    2.384490   3.019149   0.000000
     9  H    2.838405   2.384486   1.754620   0.000000
    10  H    4.190195   3.567144   4.096062   3.960219   0.000000
    11  H    3.960247   4.096061   3.567181   4.190202   1.749547
    12  H    2.657111   2.725585   4.007990   4.317502   2.694252
    13  H    4.317505   4.007990   2.725584   2.657112   2.705214
                   11         12         13
    11  H    0.000000
    12  H    2.705211   0.000000
    13  H    2.694246   4.419759   0.000000
 Stoichiometry    C5H8
 Framework group  C1[X(C5H8)]
 Deg. of freedom    33
 Full point group                 C1      NOp   1
 Largest Abelian subgroup         C1      NOp   1
 Largest concise Abelian subgroup C1      NOp   1
                         Standard orientation:                         
 ---------------------------------------------------------------------
 Center     Atomic      Atomic             Coordinates (Angstroms)
 Number     Number       Type             X           Y           Z
 ---------------------------------------------------------------------
      1          6           0        1.024873   -0.772021    0.091024
      2          6           0        1.024867    0.772028   -0.091022
      3          6           0       -0.408440    1.174719    0.078831
      4          6           0       -1.343203   -0.000005    0.000004
      5          6           0       -0.408429   -1.174721   -0.078841
      6          1           0        1.697517   -1.278689   -0.615685
      7          1           0        1.398695   -1.037631    1.096417
      8          1           0        1.398699    1.037646   -1.096409
      9          1           0        1.697500    1.278701    0.615696
     10          1           0       -2.022861   -0.053958    0.873123
     11          1           0       -2.022885    0.053942   -0.873094
     12          1           0       -0.742325   -2.206654   -0.119410
     13          1           0       -0.742344    2.206649    0.119391
 ---------------------------------------------------------------------
 Rotational constants (GHZ):           7.4527778           6.7324824           3.8090596
 Leave Link  202 at Wed Jun  2 22:27:00 2021, MaxMem=  1073741824 cpu:               0.0 elap:               0.0
 (Enter /Applications/g16/l301.exe)
 Standard basis: STO-3G (5D, 7F)
 Ernie: Thresh=  0.10000D-02 Tol=  0.10000D-05 Strict=F.
 There are    33 symmetry adapted cartesian basis functions of A   symmetry.
 There are    33 symmetry adapted basis functions of A   symmetry.
    33 basis functions,    99 primitive gaussians,    33 cartesian basis functions
    19 alpha electrons       19 beta electrons
       nuclear repulsion energy       168.7600533234 Hartrees.
 IExCor=    0 DFT=F Ex=HF Corr=None ExCW=0 ScaHFX=  1.000000
 ScaDFX=  1.000000  1.000000  1.000000  1.000000 ScalE2=  1.000000  1.000000
 IRadAn=      5 IRanWt=     -1 IRanGd=            0 ICorTp=0 IEmpDi=  4
 NAtoms=   13 NActive=   13 NUniq=   13 SFac= 1.00D+00 NAtFMM=   60 NAOKFM=F Big=F
 Integral buffers will be    131072 words long.
 Raffenetti 1 integral format.
 Two-electron integral symmetry is turned on.
 Leave Link  301 at Wed Jun  2 22:27:00 2021, MaxMem=  1073741824 cpu:               0.1 elap:               0.0
 (Enter /Applications/g16/l302.exe)
 NPDir=0 NMtPBC=     1 NCelOv=     1 NCel=       1 NClECP=     1 NCelD=      1
         NCelK=      1 NCelE2=     1 NClLst=     1 CellRange=     0.0.
 One-electron integrals computed using PRISM.
 One-electron integral symmetry used in STVInt
 NBasis=    33 RedAO= T EigKep=  2.08D-01  NBF=    33
 NBsUse=    33 1.00D-06 EigRej= -1.00D+00 NBFU=    33
 Leave Link  302 at Wed Jun  2 22:27:00 2021, MaxMem=  1073741824 cpu:               0.4 elap:               0.1
 (Enter /Applications/g16/l303.exe)
 DipDrv:  MaxL=1.
 Leave Link  303 at Wed Jun  2 22:27:00 2021, MaxMem=  1073741824 cpu:               0.1 elap:               0.0
 (Enter /Applications/g16/l401.exe)
 ExpMin= 1.69D-01 ExpMax= 7.16D+01 ExpMxC= 7.16D+01 IAcc=3 IRadAn=         5 AccDes= 0.00D+00
 Harris functional with IExCor=  205 and IRadAn=       5 diagonalized for initial guess.
 HarFok:  IExCor=  205 AccDes= 0.00D+00 IRadAn=         5 IDoV= 1 UseB2=F ITyADJ=14
 ICtDFT=  3500011 ScaDFX=  1.000000  1.000000  1.000000  1.000000
 FoFCou: FMM=F IPFlag=           0 FMFlag=      100000 FMFlg1=           0
         NFxFlg=           0 DoJE=T BraDBF=F KetDBF=T FulRan=T
         wScrn=  0.000000 ICntrl=       500 IOpCl=  0 I1Cent=   200000004 NGrid=           0
         NMat0=    1 NMatS0=      1 NMatT0=    0 NMatD0=    1 NMtDS0=    0 NMtDT0=    0
 Petite list used in FoFCou.
 Harris En= -191.864816297661    
 JPrj=0 DoOrth=F DoCkMO=F.
 Leave Link  401 at Wed Jun  2 22:27:00 2021, MaxMem=  1073741824 cpu:               1.1 elap:               0.2
 (Enter /Applications/g16/l502.exe)
 Keep R1 ints in memory in canonical form, NReq=981298.
 FoFCou: FMM=F IPFlag=           0 FMFlag=           0 FMFlg1=           0
         NFxFlg=           0 DoJE=F BraDBF=F KetDBF=F FulRan=T
         wScrn=  0.000000 ICntrl=       600 IOpCl=  0 I1Cent=           0 NGrid=           0
         NMat0=    1 NMatS0=    561 NMatT0=    0 NMatD0=    1 NMtDS0=    0 NMtDT0=    0
 Symmetry not used in FoFCou.
 Two-electron integral symmetry not used.
 Closed shell SCF:
 Using DIIS extrapolation, IDIIS=  1040.
 NGot=  1073741824 LenX=  1073580989 LenY=  1073579459
 Requested convergence on RMS density matrix=1.00D-08 within 128 cycles.
 Requested convergence on MAX density matrix=1.00D-06.
 Requested convergence on             energy=1.00D-06.
 No special actions if energy rises.

 Cycle   1  Pass 1  IDiag  1:
 E= -191.283247895576    
 DIIS: error= 4.37D-02 at cycle   1 NSaved=   1.
 NSaved= 1 IEnMin= 1 EnMin= -191.283247895576     IErMin= 1 ErrMin= 4.37D-02
 ErrMax= 4.37D-02  0.00D+00 EMaxC= 1.00D-01 BMatC= 1.18D-01 BMatP= 1.18D-01
 IDIUse=3 WtCom= 5.63D-01 WtEn= 4.37D-01
 Coeff-Com:  0.100D+01
 Coeff-En:   0.100D+01
 Coeff:      0.100D+01
 Gap=     0.193 Goal=   None    Shift=    0.000
 GapD=    0.193 DampG=1.000 DampE=0.500 DampFc=0.5000 IDamp=-1.
 Damping current iteration by 5.00D-01
 RMSDP=1.41D-02 MaxDP=1.03D-01              OVMax= 0.00D+00

 Cycle   2  Pass 1  IDiag  1:
 E= -191.346389858907     Delta-E=       -0.063141963331 Rises=F Damp=T
 DIIS: error= 2.53D-02 at cycle   2 NSaved=   2.
 NSaved= 2 IEnMin= 2 EnMin= -191.346389858907     IErMin= 2 ErrMin= 2.53D-02
 ErrMax= 2.53D-02  0.00D+00 EMaxC= 1.00D-01 BMatC= 2.74D-02 BMatP= 1.18D-01
 IDIUse=3 WtCom= 7.47D-01 WtEn= 2.53D-01
 Coeff-Com: -0.883D+00 0.188D+01
 Coeff-En:   0.000D+00 0.100D+01
 Coeff:     -0.659D+00 0.166D+01
 Gap=     0.202 Goal=   None    Shift=    0.000
 RMSDP=5.60D-03 MaxDP=4.22D-02 DE=-6.31D-02 OVMax= 0.00D+00

 Cycle   3  Pass 1  IDiag  1:
 E= -191.404653309309     Delta-E=       -0.058263450402 Rises=F Damp=F
 DIIS: error= 1.07D-03 at cycle   3 NSaved=   3.
 NSaved= 3 IEnMin= 3 EnMin= -191.404653309309     IErMin= 3 ErrMin= 1.07D-03
 ErrMax= 1.07D-03  0.00D+00 EMaxC= 1.00D-01 BMatC= 3.97D-05 BMatP= 2.74D-02
 IDIUse=3 WtCom= 9.89D-01 WtEn= 1.07D-02
 Coeff-Com:  0.979D-01-0.215D+00 0.112D+01
 Coeff-En:   0.000D+00 0.000D+00 0.100D+01
 Coeff:      0.969D-01-0.212D+00 0.112D+01
 Gap=     0.202 Goal=   None    Shift=    0.000
 RMSDP=2.99D-04 MaxDP=1.71D-03 DE=-5.83D-02 OVMax= 0.00D+00

 Cycle   4  Pass 1  IDiag  1:
 E= -191.404710686444     Delta-E=       -0.000057377135 Rises=F Damp=F
 DIIS: error= 2.14D-04 at cycle   4 NSaved=   4.
 NSaved= 4 IEnMin= 4 EnMin= -191.404710686444     IErMin= 4 ErrMin= 2.14D-04
 ErrMax= 2.14D-04  0.00D+00 EMaxC= 1.00D-01 BMatC= 1.07D-06 BMatP= 3.97D-05
 IDIUse=3 WtCom= 9.98D-01 WtEn= 2.14D-03
 Coeff-Com:  0.258D-02-0.490D-02-0.790D-01 0.108D+01
 Coeff-En:   0.000D+00 0.000D+00 0.000D+00 0.100D+01
 Coeff:      0.258D-02-0.489D-02-0.789D-01 0.108D+01
 Gap=     0.202 Goal=   None    Shift=    0.000
 RMSDP=6.12D-05 MaxDP=4.23D-04 DE=-5.74D-05 OVMax= 0.00D+00

 Cycle   5  Pass 1  IDiag  1:
 E= -191.404713185865     Delta-E=       -0.000002499421 Rises=F Damp=F
 DIIS: error= 5.00D-05 at cycle   5 NSaved=   5.
 NSaved= 5 IEnMin= 5 EnMin= -191.404713185865     IErMin= 5 ErrMin= 5.00D-05
 ErrMax= 5.00D-05  0.00D+00 EMaxC= 1.00D-01 BMatC= 8.18D-08 BMatP= 1.07D-06
 IDIUse=1 WtCom= 1.00D+00 WtEn= 0.00D+00
 Coeff-Com: -0.396D-02 0.880D-02-0.522D-01 0.359D-01 0.101D+01
 Coeff:     -0.396D-02 0.880D-02-0.522D-01 0.359D-01 0.101D+01
 Gap=     0.202 Goal=   None    Shift=    0.000
 RMSDP=2.24D-05 MaxDP=2.97D-04 DE=-2.50D-06 OVMax= 0.00D+00

 Cycle   6  Pass 1  IDiag  1:
 E= -191.404713376374     Delta-E=       -0.000000190509 Rises=F Damp=F
 DIIS: error= 4.10D-05 at cycle   6 NSaved=   6.
 NSaved= 6 IEnMin= 6 EnMin= -191.404713376374     IErMin= 6 ErrMin= 4.10D-05
 ErrMax= 4.10D-05  0.00D+00 EMaxC= 1.00D-01 BMatC= 4.12D-08 BMatP= 8.18D-08
 IDIUse=1 WtCom= 1.00D+00 WtEn= 0.00D+00
 Coeff-Com: -0.203D-02 0.451D-02-0.235D-01-0.202D-01 0.500D+00 0.541D+00
 Coeff:     -0.203D-02 0.451D-02-0.235D-01-0.202D-01 0.500D+00 0.541D+00
 Gap=     0.202 Goal=   None    Shift=    0.000
 RMSDP=1.19D-05 MaxDP=2.27D-04 DE=-1.91D-07 OVMax= 0.00D+00

 Cycle   7  Pass 1  IDiag  1:
 E= -191.404713434465     Delta-E=       -0.000000058092 Rises=F Damp=F
 DIIS: error= 1.85D-05 at cycle   7 NSaved=   7.
 NSaved= 7 IEnMin= 7 EnMin= -191.404713434465     IErMin= 7 ErrMin= 1.85D-05
 ErrMax= 1.85D-05  0.00D+00 EMaxC= 1.00D-01 BMatC= 8.07D-09 BMatP= 4.12D-08
 IDIUse=1 WtCom= 1.00D+00 WtEn= 0.00D+00
 Coeff-Com:  0.148D-02-0.325D-02 0.193D-01-0.233D-01-0.376D+00 0.217D+00
 Coeff-Com:  0.116D+01
 Coeff:      0.148D-02-0.325D-02 0.193D-01-0.233D-01-0.376D+00 0.217D+00
 Coeff:      0.116D+01
 Gap=     0.202 Goal=   None    Shift=    0.000
 RMSDP=7.11D-06 MaxDP=7.98D-05 DE=-5.81D-08 OVMax= 0.00D+00

 Cycle   8  Pass 1  IDiag  1:
 E= -191.404713458944     Delta-E=       -0.000000024479 Rises=F Damp=F
 DIIS: error= 4.88D-06 at cycle   8 NSaved=   8.
 NSaved= 8 IEnMin= 8 EnMin= -191.404713458944     IErMin= 8 ErrMin= 4.88D-06
 ErrMax= 4.88D-06  0.00D+00 EMaxC= 1.00D-01 BMatC= 2.07D-10 BMatP= 8.07D-09
 IDIUse=1 WtCom= 1.00D+00 WtEn= 0.00D+00
 Coeff-Com: -0.633D-03 0.138D-02-0.805D-02 0.117D-01 0.156D+00-0.134D+00
 Coeff-Com: -0.559D+00 0.153D+01
 Coeff:     -0.633D-03 0.138D-02-0.805D-02 0.117D-01 0.156D+00-0.134D+00
 Coeff:     -0.559D+00 0.153D+01
 Gap=     0.202 Goal=   None    Shift=    0.000
 RMSDP=1.81D-06 MaxDP=1.44D-05 DE=-2.45D-08 OVMax= 0.00D+00

 Cycle   9  Pass 1  IDiag  1:
 E= -191.404713460335     Delta-E=       -0.000000001391 Rises=F Damp=F
 DIIS: error= 1.18D-06 at cycle   9 NSaved=   9.
 NSaved= 9 IEnMin= 9 EnMin= -191.404713460335     IErMin= 9 ErrMin= 1.18D-06
 ErrMax= 1.18D-06  0.00D+00 EMaxC= 1.00D-01 BMatC= 1.55D-11 BMatP= 2.07D-10
 IDIUse=1 WtCom= 1.00D+00 WtEn= 0.00D+00
 Coeff-Com:  0.259D-04-0.573D-04 0.368D-03-0.118D-02-0.548D-02 0.962D-02
 Coeff-Com:  0.291D-01-0.289D+00 0.126D+01
 Coeff:      0.259D-04-0.573D-04 0.368D-03-0.118D-02-0.548D-02 0.962D-02
 Coeff:      0.291D-01-0.289D+00 0.126D+01
 Gap=     0.202 Goal=   None    Shift=    0.000
 RMSDP=4.54D-07 MaxDP=3.29D-06 DE=-1.39D-09 OVMax= 0.00D+00

 Cycle  10  Pass 1  IDiag  1:
 E= -191.404713460433     Delta-E=       -0.000000000098 Rises=F Damp=F
 DIIS: error= 4.66D-07 at cycle  10 NSaved=  10.
 NSaved=10 IEnMin=10 EnMin= -191.404713460433     IErMin=10 ErrMin= 4.66D-07
 ErrMax= 4.66D-07  0.00D+00 EMaxC= 1.00D-01 BMatC= 2.27D-12 BMatP= 1.55D-11
 IDIUse=1 WtCom= 1.00D+00 WtEn= 0.00D+00
 Coeff-Com:  0.992D-04-0.216D-03 0.126D-02-0.177D-02-0.241D-01 0.200D-01
 Coeff-Com:  0.868D-01-0.214D+00-0.101D+00 0.123D+01
 Coeff:      0.992D-04-0.216D-03 0.126D-02-0.177D-02-0.241D-01 0.200D-01
 Coeff:      0.868D-01-0.214D+00-0.101D+00 0.123D+01
 Gap=     0.202 Goal=   None    Shift=    0.000
 RMSDP=1.80D-07 MaxDP=1.38D-06 DE=-9.79D-11 OVMax= 0.00D+00

 Cycle  11  Pass 1  IDiag  1:
 E= -191.404713460445     Delta-E=       -0.000000000013 Rises=F Damp=F
 DIIS: error= 1.38D-07 at cycle  11 NSaved=  11.
 NSaved=11 IEnMin=11 EnMin= -191.404713460445     IErMin=11 ErrMin= 1.38D-07
 ErrMax= 1.38D-07  0.00D+00 EMaxC= 1.00D-01 BMatC= 2.27D-13 BMatP= 2.27D-12
 IDIUse=1 WtCom= 1.00D+00 WtEn= 0.00D+00
 Coeff-Com: -0.506D-04 0.111D-03-0.648D-03 0.101D-02 0.121D-01-0.113D-01
 Coeff-Com: -0.445D-01 0.137D+00-0.607D-01-0.690D+00 0.166D+01
 Coeff:     -0.506D-04 0.111D-03-0.648D-03 0.101D-02 0.121D-01-0.113D-01
 Coeff:     -0.445D-01 0.137D+00-0.607D-01-0.690D+00 0.166D+01
 Gap=     0.202 Goal=   None    Shift=    0.000
 RMSDP=7.01D-08 MaxDP=6.93D-07 DE=-1.27D-11 OVMax= 0.00D+00

 Cycle  12  Pass 1  IDiag  1:
 E= -191.404713460447     Delta-E=       -0.000000000002 Rises=F Damp=F
 DIIS: error= 2.07D-08 at cycle  12 NSaved=  12.
 NSaved=12 IEnMin=12 EnMin= -191.404713460447     IErMin=12 ErrMin= 2.07D-08
 ErrMax= 2.07D-08  0.00D+00 EMaxC= 1.00D-01 BMatC= 1.21D-14 BMatP= 2.27D-13
 IDIUse=1 WtCom= 1.00D+00 WtEn= 0.00D+00
 Coeff-Com:  0.351D-05-0.771D-05 0.477D-04-0.988D-04-0.816D-03 0.957D-03
 Coeff-Com:  0.390D-02-0.192D-01 0.233D-01 0.131D+00-0.529D+00 0.139D+01
 Coeff:      0.351D-05-0.771D-05 0.477D-04-0.988D-04-0.816D-03 0.957D-03
 Coeff:      0.390D-02-0.192D-01 0.233D-01 0.131D+00-0.529D+00 0.139D+01
 Gap=     0.202 Goal=   None    Shift=    0.000
 RMSDP=1.25D-08 MaxDP=1.17D-07 DE=-2.16D-12 OVMax= 0.00D+00

 Cycle  13  Pass 1  IDiag  1:
 E= -191.404713460448     Delta-E=       -0.000000000000 Rises=F Damp=F
 DIIS: error= 5.95D-09 at cycle  13 NSaved=  13.
 NSaved=13 IEnMin=13 EnMin= -191.404713460448     IErMin=13 ErrMin= 5.95D-09
 ErrMax= 5.95D-09  0.00D+00 EMaxC= 1.00D-01 BMatC= 1.26D-15 BMatP= 1.21D-14
 IDIUse=1 WtCom= 1.00D+00 WtEn= 0.00D+00
 Coeff-Com:  0.835D-08 0.128D-07-0.152D-05 0.124D-04 0.944D-05-0.228D-03
 Coeff-Com: -0.161D-03 0.390D-02-0.764D-02-0.328D-01 0.158D+00-0.538D+00
 Coeff-Com:  0.142D+01
 Coeff:      0.835D-08 0.128D-07-0.152D-05 0.124D-04 0.944D-05-0.228D-03
 Coeff:     -0.161D-03 0.390D-02-0.764D-02-0.328D-01 0.158D+00-0.538D+00
 Coeff:      0.142D+01
 Gap=     0.202 Goal=   None    Shift=    0.000
 RMSDP=2.32D-09 MaxDP=2.14D-08 DE=-3.41D-13 OVMax= 0.00D+00

 SCF Done:  E(RHF) =  -191.404713460     A.U. after   13 cycles
            NFock= 13  Conv=0.23D-08     -V/T= 2.0065
 KE= 1.901611680938D+02 PE=-7.839248206126D+02 EE= 2.335988857349D+02
 Leave Link  502 at Wed Jun  2 22:27:01 2021, MaxMem=  1073741824 cpu:               0.7 elap:               0.1
 (Enter /Applications/g16/l601.exe)
 Copying SCF densities to generalized density rwf, IOpCl= 0 IROHF=0.

 **********************************************************************

            Population analysis using the SCF Density.

 **********************************************************************

 Orbital symmetries:
       Occupied  (A) (A) (A) (A) (A) (A) (A) (A) (A) (A) (A) (A)
                 (A) (A) (A) (A) (A) (A) (A)
       Virtual   (A) (A) (A) (A) (A) (A) (A) (A) (A) (A) (A) (A)
                 (A) (A)
 The electronic state is 1-A.
 Alpha  occ. eigenvalues --  -11.04574 -11.03165 -11.03132 -10.96541 -10.96521
 Alpha  occ. eigenvalues --   -1.05187  -0.92126  -0.87380  -0.70590  -0.69499
 Alpha  occ. eigenvalues --   -0.60835  -0.57793  -0.52285  -0.45968  -0.44645
 Alpha  occ. eigenvalues --   -0.44322  -0.43246  -0.42434  -0.08052
 Alpha virt. eigenvalues --    0.12110   0.59793   0.63651   0.63857   0.64341
 Alpha virt. eigenvalues --    0.69654   0.70011   0.71704   0.77648   0.77828
 Alpha virt. eigenvalues --    0.80896   0.83436   0.90477   0.92675
          Condensed to atoms (all electrons):
               1          2          3          4          5          6
     1  C    4.734764   0.359842  -0.033036  -0.035143   0.395108   0.377963
     2  C    0.359842   4.734765   0.395107  -0.035143  -0.033036  -0.018557
     3  C   -0.033036   0.395107   5.043068   0.400025  -0.064832   0.001478
     4  C   -0.035143  -0.035143   0.400025   4.753064   0.400024   0.001134
     5  C    0.395108  -0.033036  -0.064832   0.400024   5.043069  -0.021561
     6  H    0.377963  -0.018557   0.001478   0.001134  -0.021561   0.637746
     7  H    0.367965  -0.021325   0.003051   0.000558  -0.024703  -0.026259
     8  H   -0.021325   0.367965  -0.024702   0.000558   0.003051  -0.007332
     9  H   -0.018557   0.377963  -0.021561   0.001134   0.001478   0.001586
    10  H    0.000840   0.001014  -0.011529   0.356110  -0.011944   0.000013
    11  H    0.001014   0.000840  -0.011944   0.356111  -0.011529  -0.000092
    12  H   -0.020852   0.001188   0.001294  -0.021326   0.387966  -0.000940
    13  H    0.001188  -0.020852   0.387966  -0.021326   0.001294  -0.000022
               7          8          9         10         11         12
     1  C    0.367965  -0.021325  -0.018557   0.000840   0.001014  -0.020852
     2  C   -0.021325   0.367965   0.377963   0.001014   0.000840   0.001188
     3  C    0.003051  -0.024702  -0.021561  -0.011529  -0.011944   0.001294
     4  C    0.000558   0.000558   0.001134   0.356110   0.356111  -0.021326
     5  C   -0.024703   0.003051   0.001478  -0.011944  -0.011529   0.387966
     6  H   -0.026259  -0.007332   0.001586   0.000013  -0.000092  -0.000940
     7  H    0.657208   0.002525  -0.007332  -0.000203   0.000032  -0.000383
     8  H    0.002525   0.657207  -0.026259   0.000032  -0.000203  -0.000036
     9  H   -0.007332  -0.026259   0.637747  -0.000092   0.000013  -0.000022
    10  H   -0.000203   0.000032  -0.000092   0.569987  -0.012844  -0.000607
    11  H    0.000032  -0.000203   0.000013  -0.012844   0.569988  -0.000696
    12  H   -0.000383  -0.000036  -0.000022  -0.000607  -0.000696   0.616052
    13  H   -0.000036  -0.000383  -0.000940  -0.000696  -0.000607  -0.000024
              13
     1  C    0.001188
     2  C   -0.020852
     3  C    0.387966
     4  C   -0.021326
     5  C    0.001294
     6  H   -0.000022
     7  H   -0.000036
     8  H   -0.000383
     9  H   -0.000940
    10  H   -0.000696
    11  H   -0.000607
    12  H   -0.000024
    13  H    0.616052
 Mulliken charges:
               1
     1  C   -0.109771
     2  C   -0.109771
     3  C   -0.064384
     4  C   -0.155778
     5  C   -0.064385
     6  H    0.054842
     7  H    0.048899
     8  H    0.048900
     9  H    0.054842
    10  H    0.109919
    11  H    0.109917
    12  H    0.038386
    13  H    0.038386
 Sum of Mulliken charges =   0.00000
 Mulliken charges with hydrogens summed into heavy atoms:
               1
     1  C   -0.006030
     2  C   -0.006030
     3  C   -0.025998
     4  C    0.064058
     5  C   -0.026000
 Electronic spatial extent (au):  <R**2>=            380.2897
 Charge=             -0.0000 electrons
 Dipole moment (field-independent basis, Debye):
    X=             -0.7695    Y=              0.0000    Z=              0.0000  Tot=              0.7695
 Quadrupole moment (field-independent basis, Debye-Ang):
   XX=            -27.4415   YY=            -30.7596   ZZ=            -29.8385
   XY=              0.0000   XZ=             -0.0000   YZ=             -0.1339
 Traceless Quadrupole moment (field-independent basis, Debye-Ang):
   XX=              1.9050   YY=             -1.4131   ZZ=             -0.4920
   XY=              0.0000   XZ=             -0.0000   YZ=             -0.1339
 Octapole moment (field-independent basis, Debye-Ang**2):
  XXX=             -5.7687  YYY=              0.0000  ZZZ=              0.0001  XYY=              0.0557
  XXY=             -0.0000  XXZ=              0.0000  XZZ=             -0.6002  YZZ=              0.0000
  YYZ=             -0.0000  XYZ=              0.3748
 Hexadecapole moment (field-independent basis, Debye-Ang**3):
 XXXX=           -221.6603 YYYY=           -203.5439 ZZZZ=            -45.3123 XXXY=              0.0000
 XXXZ=             -0.0001 YYYX=             -0.0000 YYYZ=              0.8913 ZZZX=             -0.0001
 ZZZY=             -1.0334 XXYY=            -73.1726 XXZZ=            -41.2388 YYZZ=            -43.7379
 XXYZ=              0.5731 YYXZ=              0.0000 ZZXY=              0.0000
 N-N= 1.687600533234D+02 E-N=-7.839248206241D+02  KE= 1.901611680938D+02
 No NMR shielding tensors so no spin-rotation constants.
 Leave Link  601 at Wed Jun  2 22:27:01 2021, MaxMem=  1073741824 cpu:               0.3 elap:               0.1
 (Enter /Applications/g16/l9999.exe)
 1\1\GINC-MAC-MINI\SP\RHF\STO-3G\C5H8\TETSU\02-Jun-2021\0\\#p rhf/sto-3
 g\\Title Card Required\\0,1\C,0,1.024872,0.772022,-0.091024\C,0,1.0248
 68,-0.772027,0.091022\C,0,-0.408439,-1.174719,-0.078831\C,0,-1.343203,
 0.000004,-0.000004\C,0,-0.40843,1.174721,0.078841\H,0,1.697516,1.27869
 1,0.615685\H,0,1.398694,1.037633,-1.096417\H,0,1.3987,-1.037644,1.0964
 09\H,0,1.697501,-1.278699,-0.615696\H,0,-2.022861,0.053956,-0.873123\H
 ,0,-2.022885,-0.053944,0.873094\H,0,-0.742327,2.206653,0.11941\H,0,-0.
 742342,-2.20665,-0.119391\\Version=EM64M-G16RevB.01\State=1-A\HF=-191.
 4047135\RMSD=2.322e-09\Dipole=-0.3027304,-0.0000058,-0.0000139\Quadrup
 ole=1.4163382,-1.0505776,-0.3657605,-0.0000016,0.0000355,-0.0995225\PG
 =C01 [X(C5H8)]\\@


 There ain't no surer way to find out whether you
 like people or hate them than to travel with them.
                                     -- Mark Twain
 Job cpu time:       0 days  0 hours  0 minutes  3.6 seconds.
 Elapsed time:       0 days  0 hours  0 minutes  0.7 seconds.
 File lengths (MBytes):  RWF=      6 Int=      0 D2E=      0 Chk=      1 Scr=      1
 Normal termination of Gaussian 16 at Wed Jun  2 22:27:01 2021.
 Initial command:
 /Applications/g16/l1.exe "/Applications/g16/Scratch/Gau-20571.inp" -scrdir="/Applications/g16/Scratch/"
 Entering Link 1 = /Applications/g16/l1.exe PID=     20574.
  
 Copyright (c) 1988-2017, Gaussian, Inc.  All Rights Reserved.
  
 This is part of the Gaussian(R) 16 program.  It is based on
 the Gaussian(R) 09 system (copyright 2009, Gaussian, Inc.),
 the Gaussian(R) 03 system (copyright 2003, Gaussian, Inc.),
 the Gaussian(R) 98 system (copyright 1998, Gaussian, Inc.),
 the Gaussian(R) 94 system (copyright 1995, Gaussian, Inc.),
 the Gaussian 92(TM) system (copyright 1992, Gaussian, Inc.),
 the Gaussian 90(TM) system (copyright 1990, Gaussian, Inc.),
 the Gaussian 88(TM) system (copyright 1988, Gaussian, Inc.),
 the Gaussian 86(TM) system (copyright 1986, Carnegie Mellon
 University), and the Gaussian 82(TM) system (copyright 1983,
 Carnegie Mellon University). Gaussian is a federally registered
 trademark of Gaussian, Inc.
  
 This software contains proprietary and confidential information,
 including trade secrets, belonging to Gaussian, Inc.
  
 This software is provided under written license and may be
 used, copied, transmitted, or stored only in accord with that
 written license.
  
 The following legend is applicable only to US Government
 contracts under FAR:
  
                    RESTRICTED RIGHTS LEGEND
  
 Use, reproduction and disclosure by the US Government is
 subject to restrictions as set forth in subparagraphs (a)
 and (c) of the Commercial Computer Software - Restricted
 Rights clause in FAR 52.227-19.
  
 Gaussian, Inc.
 340 Quinnipiac St., Bldg. 40, Wallingford CT 06492
  
  
 ---------------------------------------------------------------
 Warning -- This program may not be used in any manner that
 competes with the business of Gaussian, Inc. or will provide
 assistance to any competitor of Gaussian, Inc.  The licensee
 of this program is prohibited from giving any competitor of
 Gaussian, Inc. access to this program.  By using this program,
 the user acknowledges that Gaussian, Inc. is engaged in the
 business of creating and licensing software in the field of
 computational chemistry and represents and warrants to the
 licensee that it is not a competitor of Gaussian, Inc. and that
 it will not use this program in any manner prohibited above.
 ---------------------------------------------------------------
  

 Cite this work as:
 Gaussian 16, Revision B.01,
 M. J. Frisch, G. W. Trucks, H. B. Schlegel, G. E. Scuseria, 
 M. A. Robb, J. R. Cheeseman, G. Scalmani, V. Barone, 
 G. A. Petersson, H. Nakatsuji, X. Li, M. Caricato, A. V. Marenich, 
 J. Bloino, B. G. Janesko, R. Gomperts, B. Mennucci, H. P. Hratchian, 
 J. V. Ortiz, A. F. Izmaylov, J. L. Sonnenberg, D. Williams-Young, 
 F. Ding, F. Lipparini, F. Egidi, J. Goings, B. Peng, A. Petrone, 
 T. Henderson, D. Ranasinghe, V. G. Zakrzewski, J. Gao, N. Rega, 
 G. Zheng, W. Liang, M. Hada, M. Ehara, K. Toyota, R. Fukuda, 
 J. Hasegawa, M. Ishida, T. Nakajima, Y. Honda, O. Kitao, H. Nakai, 
 T. Vreven, K. Throssell, J. A. Montgomery, Jr., J. E. Peralta, 
 F. Ogliaro, M. J. Bearpark, J. J. Heyd, E. N. Brothers, K. N. Kudin, 
 V. N. Staroverov, T. A. Keith, R. Kobayashi, J. Normand, 
 K. Raghavachari, A. P. Rendell, J. C. Burant, S. S. Iyengar, 
 J. Tomasi, M. Cossi, J. M. Millam, M. Klene, C. Adamo, R. Cammi, 
 J. W. Ochterski, R. L. Martin, K. Morokuma, O. Farkas, 
 J. B. Foresman, and D. J. Fox, Gaussian, Inc., Wallingford CT, 2016.
 
 ******************************************
 Gaussian 16:  EM64M-G16RevB.01 20-Dec-2017
                 2-Jun-2021 
 ******************************************
 %nprocshared=6
 Will use up to    6 processors via shared memory.
 %mem=8GB
 %oldchk=drch_5_1.chk
 %chk=drch_5_2.chk
 Copying data from "drch_5_1.chk" to current chk file "drch_5_2.chk"
 IOpt=  2 FromEx=T IUOpen= 4 IOptOp= 5 NList=   0 IFRang= 0 IUIn= 4 IUOut= 2.
 -----------------------------------------------------
 #p casscf(2,2)/sto-3g guess=read pop=no geom=allcheck
 -----------------------------------------------------
 1/29=7,38=1,172=1/1;
 2/12=2,40=1/2;
 3/6=3,14=-4,25=1,116=101/1,2,3;
 4/5=1,17=2,18=2,43=1/1,5;
 5/5=2,17=1000000,38=6/10;
 6/7=2,8=2,9=2,10=2,22=-1,28=1,31=1/1;
 99/5=1,9=1/99;
 Leave Link    1 at Wed Jun  2 22:27:01 2021, MaxMem=  1073741824 cpu:               0.1 elap:               0.0
 (Enter /Applications/g16/l101.exe)
 Structure from the checkpoint file:  "drch_5_2.chk"
 -------------------
 Title Card Required
 -------------------
 Charge =  0 Multiplicity = 1
 Z-Matrix found in chk file.
 C,0,1.024872,0.772022,-0.091024
 C,0,1.024868,-0.772027,0.091022
 C,0,-0.408439,-1.174719,-0.078831
 C,0,-1.343203,0.000004,-0.000004
 C,0,-0.40843,1.174721,0.078841
 H,0,1.697516,1.278691,0.615685
 H,0,1.398694,1.037633,-1.096417
 H,0,1.3987,-1.037644,1.096409
 H,0,1.697501,-1.278699,-0.615696
 H,0,-2.022861,0.053956,-0.873123
 H,0,-2.022885,-0.053944,0.873094
 H,0,-0.742327,2.206653,0.11941
 H,0,-0.742342,-2.20665,-0.119391
 Recover connectivity data from disk.
 ITRead=  0  0  0  0  0  0  0  0  0  0  0  0  0
 MicOpt= -1 -1 -1 -1 -1 -1 -1 -1 -1 -1 -1 -1 -1
 NAtoms=     13 NQM=       13 NQMF=       0 NMMI=      0 NMMIF=      0
                NMic=       0 NMicF=      0.
                    Isotopes and Nuclear Properties:
 (Nuclear quadrupole moments (NQMom) in fm**2, nuclear magnetic moments (NMagM)
  in nuclear magnetons)

  Atom         1           2           3           4           5           6           7           8           9          10
 IAtWgt=          12          12          12          12          12           1           1           1           1           1
 AtmWgt=  12.0000000  12.0000000  12.0000000  12.0000000  12.0000000   1.0078250   1.0078250   1.0078250   1.0078250   1.0078250
 NucSpn=           0           0           0           0           0           1           1           1           1           1
 AtZEff=   3.6000000   3.6000000   3.6000000   3.6000000   3.6000000   1.0000000   1.0000000   1.0000000   1.0000000   1.0000000
 NQMom=    0.0000000   0.0000000   0.0000000   0.0000000   0.0000000   0.0000000   0.0000000   0.0000000   0.0000000   0.0000000
 NMagM=    0.0000000   0.0000000   0.0000000   0.0000000   0.0000000   2.7928460   2.7928460   2.7928460   2.7928460   2.7928460
 AtZNuc=   6.0000000   6.0000000   6.0000000   6.0000000   6.0000000   1.0000000   1.0000000   1.0000000   1.0000000   1.0000000

  Atom        11          12          13
 IAtWgt=           1           1           1
 AtmWgt=   1.0078250   1.0078250   1.0078250
 NucSpn=           1           1           1
 AtZEff=   1.0000000   1.0000000   1.0000000
 NQMom=    0.0000000   0.0000000   0.0000000
 NMagM=    2.7928460   2.7928460   2.7928460
 AtZNuc=   1.0000000   1.0000000   1.0000000
 Leave Link  101 at Wed Jun  2 22:27:01 2021, MaxMem=  1073741824 cpu:               0.7 elap:               0.1
 (Enter /Applications/g16/l202.exe)
                          Input orientation:                          
 ---------------------------------------------------------------------
 Center     Atomic      Atomic             Coordinates (Angstroms)
 Number     Number       Type             X           Y           Z
 ---------------------------------------------------------------------
      1          6           0        1.024872    0.772022   -0.091024
      2          6           0        1.024868   -0.772027    0.091022
      3          6           0       -0.408439   -1.174719   -0.078831
      4          6           0       -1.343203    0.000004   -0.000004
      5          6           0       -0.408430    1.174721    0.078841
      6          1           0        1.697516    1.278691    0.615685
      7          1           0        1.398694    1.037633   -1.096417
      8          1           0        1.398700   -1.037644    1.096409
      9          1           0        1.697501   -1.278699   -0.615696
     10          1           0       -2.022861    0.053956   -0.873123
     11          1           0       -2.022885   -0.053944    0.873094
     12          1           0       -0.742327    2.206653    0.119410
     13          1           0       -0.742342   -2.206650   -0.119391
 ---------------------------------------------------------------------
                    Distance matrix (angstroms):
                    1          2          3          4          5
     1  C    0.000000
     2  C    1.554744   0.000000
     3  C    2.417505   1.498459   0.000000
     4  C    2.492404   2.492404   1.503320   0.000000
     5  C    1.498458   2.417503   2.354725   1.503322   0.000000
     6  H    1.099364   2.221074   3.307056   3.355605   2.175780
     7  H    1.105037   2.196503   3.032443   3.129983   2.160028
     8  H    2.196505   1.105037   2.160030   3.129995   3.032445
     9  H    2.221073   1.099364   2.175780   3.355598   3.307053
    10  H    3.227379   3.301587   2.178738   1.107783   2.183744
    11  H    3.301601   3.227395   2.183743   1.107781   2.178743
    12  H    2.285922   3.463570   3.403595   2.290112   1.085365
    13  H    3.463573   2.285924   1.085365   2.290111   3.403596
                    6          7          8          9         10
     6  H    0.000000
     7  H    1.754622   0.000000
     8  H    2.384490   3.019149   0.000000
     9  H    2.838405   2.384486   1.754620   0.000000
    10  H    4.190195   3.567144   4.096062   3.960219   0.000000
    11  H    3.960247   4.096061   3.567181   4.190202   1.749547
    12  H    2.657111   2.725585   4.007990   4.317502   2.694252
    13  H    4.317505   4.007990   2.725584   2.657112   2.705214
                   11         12         13
    11  H    0.000000
    12  H    2.705211   0.000000
    13  H    2.694246   4.419759   0.000000
 Stoichiometry    C5H8
 Framework group  C1[X(C5H8)]
 Deg. of freedom    33
 Full point group                 C1      NOp   1
 RotChk:  IX=0 Diff= 3.36D-15
 Largest Abelian subgroup         C1      NOp   1
 Largest concise Abelian subgroup C1      NOp   1
                         Standard orientation:                         
 ---------------------------------------------------------------------
 Center     Atomic      Atomic             Coordinates (Angstroms)
 Number     Number       Type             X           Y           Z
 ---------------------------------------------------------------------
      1          6           0        1.024873   -0.772021    0.091024
      2          6           0        1.024867    0.772028   -0.091022
      3          6           0       -0.408440    1.174719    0.078831
      4          6           0       -1.343203   -0.000005    0.000004
      5          6           0       -0.408429   -1.174721   -0.078841
      6          1           0        1.697517   -1.278689   -0.615685
      7          1           0        1.398695   -1.037631    1.096417
      8          1           0        1.398699    1.037646   -1.096409
      9          1           0        1.697500    1.278701    0.615696
     10          1           0       -2.022861   -0.053958    0.873123
     11          1           0       -2.022885    0.053942   -0.873094
     12          1           0       -0.742325   -2.206654   -0.119410
     13          1           0       -0.742344    2.206649    0.119391
 ---------------------------------------------------------------------
 Rotational constants (GHZ):           7.4527778           6.7324824           3.8090596
 Leave Link  202 at Wed Jun  2 22:27:01 2021, MaxMem=  1073741824 cpu:               0.0 elap:               0.0
 (Enter /Applications/g16/l301.exe)
 Standard basis: STO-3G (5D, 7F)
 Ernie: Thresh=  0.10000D-02 Tol=  0.10000D-05 Strict=F.
 There are    33 symmetry adapted cartesian basis functions of A   symmetry.
 There are    33 symmetry adapted basis functions of A   symmetry.
    33 basis functions,    99 primitive gaussians,    33 cartesian basis functions
    19 alpha electrons       19 beta electrons
       nuclear repulsion energy       168.7600533234 Hartrees.
 IExCor=    0 DFT=F Ex=HF Corr=None ExCW=0 ScaHFX=  1.000000
 ScaDFX=  1.000000  1.000000  1.000000  1.000000 ScalE2=  1.000000  1.000000
 IRadAn=      5 IRanWt=     -1 IRanGd=            0 ICorTp=0 IEmpDi=  4
 NAtoms=   13 NActive=   13 NUniq=   13 SFac= 1.00D+00 NAtFMM=   60 NAOKFM=F Big=F
 Integral buffers will be    131072 words long.
 Regular integral format.
 Two-electron integral symmetry is turned off.
 Leave Link  301 at Wed Jun  2 22:27:01 2021, MaxMem=  1073741824 cpu:               0.1 elap:               0.0
 (Enter /Applications/g16/l302.exe)
 NPDir=0 NMtPBC=     1 NCelOv=     1 NCel=       1 NClECP=     1 NCelD=      1
         NCelK=      1 NCelE2=     1 NClLst=     1 CellRange=     0.0.
 One-electron integrals computed using PRISM.
 NBasis=    33 RedAO= T EigKep=  2.08D-01  NBF=    33
 NBsUse=    33 1.00D-06 EigRej= -1.00D+00 NBFU=    33
 Leave Link  302 at Wed Jun  2 22:27:01 2021, MaxMem=  1073741824 cpu:               0.5 elap:               0.1
 (Enter /Applications/g16/l303.exe)
 DipDrv:  MaxL=1.
 Leave Link  303 at Wed Jun  2 22:27:01 2021, MaxMem=  1073741824 cpu:               0.1 elap:               0.0
 (Enter /Applications/g16/l401.exe)
 Initial guess from the checkpoint file:  "drch_5_2.chk"
 B after Tr=    -0.000000   -0.000000   -0.000000
         Rot=    1.000000    0.000000    0.000000   -0.000000 Ang=   0.00 deg.
 Guess basis will be translated and rotated to current coordinates.
 JPrj=2 DoOrth=T DoCkMO=T.
 Leave Link  401 at Wed Jun  2 22:27:01 2021, MaxMem=  1073741824 cpu:               0.3 elap:               0.1
 (Enter /Applications/g16/l405.exe)
          Truncation Level=               99999
          a=  1          b=  0          c=  1
          a=N/2 - s   b=2s   c=n- (a+b)
          no. active orbitals (n)  2
          no. active ELECTRONS (N)=  2
                                                  IRREPS TO BE RETAINED = 1
                                                  GROUP IRREP. MULT. TABLE
                                                      1
                                                  IRREP. LABELS FOR ORBITALS
                                                   1 1
          BOTTOM WEIGHT=  2     TOP WEIGHT=  4
          Configuration         1 Symmetry 1 10
          Configuration         2 Symmetry 1 ab
          Configuration         3 Symmetry 1 01
          NO OF BASIS FUNCTIONS =         3 NO TO BE DELETED =    0
 CI Matrix Elements calculated here
          NO. OF CONFIGURATIONS IN REFERENCE SPACE =    1
                                   SECONDARY SPACE =    3
                                   TERTIARY SPACE =    3
          NO. OF ORBITALS =    2
          NO. OF ELECTRONS =    2
          NO. OF WEIGHTS =    3
          REFERENCE STATE CONFIGURATIONS ARE:     0
          NO. OF CORE ORBITALS =    0
          OPTION:  NON-DIAGONAL HOLE LINE INTERACTIONS INCLUDED
 Len28=          98 LenMCI=         101.
 Leave Link  405 at Wed Jun  2 22:27:04 2021, MaxMem=  1073741824 cpu:              11.2 elap:               2.9
 (Enter /Applications/g16/l510.exe)
 Enter MCSCF program.
 NBasis=   33 NCore=   18 NVal=    2 NVirt=   13 IFrame=0 Acc=  1.00D-08.
  Memory needed for Incore Integrals:                  419785
  Integrals KEPT IN MEMORY
 IBUJAK length=                    4488
 Integral file not found: evaluate integrals 
 FoFCou: FMM=F IPFlag=           0 FMFlag=           0 FMFlg1=           0
         NFxFlg=           0 DoJE=F BraDBF=F KetDBF=F FulRan=T
         wScrn=  0.000000 ICntrl=       600 IOpCl=  0 I1Cent=           0 NGrid=           0
         NMat0=    1 NMatS0=      1 NMatT0=    0 NMatD0=    1 NMtDS0=    0 NMtDT0=    0
 Symmetry not used in FoFCou.
 Defining IBUGAM
 2ND ORD PT ENERGY     CV   -0.006183   CU   -0.000797   UV   -0.005604
 TOTAL                    -191.603300
 ITN=  1 MaxIt= 64 E=   -191.5907163310 DE=-1.92D+02 Acc= 1.00D-08 Lan=  0
 ITN=  2 MaxIt= 64 E=   -191.6071297067 DE=-1.64D-02 Acc= 1.00D-08 Lan=  0
 ITN=  3 MaxIt= 64 E=   -191.6091072824 DE=-1.98D-03 Acc= 1.00D-08 Lan=  0
 ITN=  4 MaxIt= 64 E=   -191.6093364017 DE=-2.29D-04 Acc= 1.00D-08 Lan=  0
 ITN=  5 MaxIt= 64 E=   -191.6093655080 DE=-2.91D-05 Acc= 1.00D-08 Lan=  0
 ITN=  6 MaxIt= 64 E=   -191.6093697229 DE=-4.21D-06 Acc= 1.00D-08 Lan=  0
 ITN=  7 MaxIt= 64 E=   -191.6093704948 DE=-7.72D-07 Acc= 1.00D-08 Lan=  0
 ITN=  8 MaxIt= 64 E=   -191.6093706851 DE=-1.90D-07 Acc= 1.00D-08 Lan=  0
 ITN=  9 MaxIt= 64 E=   -191.6093707445 DE=-5.94D-08 Acc= 1.00D-08 Lan=  0
 ITN= 10 MaxIt= 64 E=   -191.6093707655 DE=-2.10D-08 Acc= 1.00D-08 Lan=  0
 ITN= 11 MaxIt= 64 E=   -191.6093707733 DE=-7.78D-09 Acc= 1.00D-08 Lan=  0
 ... Do an extra-iteration for final printing.


                    EIGENVALUES AND  EIGENVECTORS OF CI MATRIX



   ( 1)     EIGENVALUE   -191.6093708    
 (    3) 0.7161560 (    1)-0.6979402 (    2)-0.0000000 (
 Final one electron symbolic density matrix:
                1             2 
      1  0.974241D+00
      2 -0.842570D-11  0.102576D+01
 MCSCF converged.
 Leave Link  510 at Wed Jun  2 22:27:06 2021, MaxMem=  1073741824 cpu:               6.9 elap:               1.5
 (Enter /Applications/g16/l601.exe)
 Copying SCF densities to generalized density rwf, IOpCl= 0 IROHF=3.

 **********************************************************************

            Population analysis using the SCF Density.

 **********************************************************************

 Orbital symmetries:
       Occupied  (A) (A) (A) (A) (A) (A) (A) (A) (A) (A) (A) (A)
                 (A) (A) (A) (A) (A) (A) (A)
       Virtual   (A) (A) (A) (A) (A) (A) (A) (A) (A) (A) (A) (A)
                 (A) (A)
 The electronic state is 1-A.
     Natural Orbital Coefficients:
                           1         2         3         4         5
     Eigenvalues --     2.00000   2.00000   2.00000   2.00000   2.00000
   1 1   C  1S         -0.02056  -0.04576  -0.06104  -0.02393   0.14745
   2        2S          0.22588  -0.03358   0.22898  -0.02991  -0.28789
   3        2PX        -0.08650   0.01438  -0.01037  -0.28497  -0.03773
   4        2PY         0.03391   0.15071  -0.13060  -0.22871  -0.18085
   5        2PZ         0.00552  -0.00291   0.02638   0.08726  -0.15709
   6 2   C  1S          0.02760   0.25378   0.22591   0.05234  -0.19823
   7        2S          0.32008   0.11746  -0.23243  -0.18224  -0.04345
   8        2PX        -0.03904   0.25030  -0.06710   0.09500  -0.06860
   9        2PY        -0.00271  -0.14303   0.00753   0.18975   0.22702
  10        2PZ         0.00988  -0.09729   0.06893   0.14075  -0.07488
  11 3   C  1S          0.00127  -0.06898  -0.25601   0.21778   0.01607
  12        2S          0.25766  -0.19033   0.17489   0.05634   0.10040
  13        2PX         0.02229  -0.23268  -0.04535  -0.17056   0.07218
  14        2PY        -0.08104  -0.08440   0.14178  -0.20190  -0.03543
  15        2PZ        -0.01224  -0.00755   0.02221   0.02023  -0.02701
  16 4   C  1S         -0.00692  -0.08829   0.00858  -0.08546   0.62820
  17        2S          0.30377   0.03288  -0.12836   0.00493   0.05062
  18        2PX         0.06810  -0.12801   0.05874   0.04498   0.00766
  19        2PY         0.01032   0.24381   0.01650   0.35035   0.03149
  20        2PZ         0.02467  -0.08668   0.07038   0.08752  -0.05092
  21 5   C  1S          0.02812   0.50148   0.61434  -0.16894   0.32749
  22        2S          0.27574  -0.06229  -0.04605   0.08152   0.04695
  23        2PX         0.02870   0.03255   0.13273   0.34483   0.01283
  24        2PY         0.05721  -0.23512   0.12175  -0.10033  -0.05221
  25        2PZ         0.01980  -0.02777   0.02528   0.03924  -0.02562
  26 6   H  1S          0.00700  -0.09431   0.10696  -0.12493   0.06524
  27 7   H  1S          0.03593  -0.04032   0.10822   0.01317  -0.18304
  28 8   H  1S          0.07122   0.15557  -0.14400  -0.08560   0.07051
  29 9   H  1S          0.08222   0.04793  -0.06167   0.18780   0.01479
  30 10  H  1S          0.07167  -0.00832  -0.01415   0.03031  -0.03497
  31 11  H  1S          0.03679   0.14493  -0.11511  -0.05662   0.03880
  32 12  H  1S          0.05355   0.18083  -0.17770   0.02731   0.03703
  33 13  H  1S          0.02744  -0.08792   0.20150  -0.14444  -0.03843
                           6         7         8         9        10
     Eigenvalues --     2.00000   2.00000   2.00000   2.00000   2.00000
   1 1   C  1S          0.02740   0.27066   0.05508   0.06883  -0.09461
   2        2S         -0.22496  -0.09418   0.29771   0.01443   0.06523
   3        2PX         0.19987  -0.18960   0.10905  -0.13663   0.03818
   4        2PY         0.00393   0.13864   0.15073   0.07475  -0.25447
   5        2PZ         0.18972  -0.06588   0.09093  -0.00582  -0.09391
   6 2   C  1S          0.09150   0.30410  -0.18507   0.04625   0.28722
   7        2S         -0.16590   0.09596   0.09552  -0.15089   0.08855
   8        2PX         0.00790   0.10866   0.06738   0.17489  -0.06632
   9        2PY         0.03290  -0.03897  -0.20126  -0.07012   0.22958
  10        2PZ         0.06902   0.03827   0.11473   0.06407  -0.09418
  11 3   C  1S         -0.05081   0.36073   0.20078   0.24009   0.26198
  12        2S         -0.01011  -0.15570  -0.15318  -0.13528  -0.26239
  13        2PX        -0.05566   0.01865  -0.03864  -0.16310   0.22853
  14        2PY        -0.16353   0.23439  -0.12682   0.10167  -0.17303
  15        2PZ         0.03016   0.06357   0.02282  -0.00210  -0.02981
  16 4   C  1S         -0.08833   0.13609   0.60981  -0.00102  -0.13828
  17        2S          0.40109  -0.15115  -0.11811   0.25840   0.01981
  18        2PX         0.06794  -0.10650   0.02625  -0.01072  -0.02653
  19        2PY        -0.04814  -0.18280   0.09189  -0.07318  -0.11195
  20        2PZ         0.25491   0.27969   0.06005  -0.29351  -0.00095
  21 5   C  1S          0.17001   0.03640   0.02672   0.01319   0.14307
  22        2S         -0.11749   0.11116  -0.20446  -0.04980  -0.09073
  23        2PX        -0.25677   0.04470   0.02910   0.06797   0.07199
  24        2PY         0.07825   0.05669  -0.01503   0.33467   0.16509
  25        2PZ         0.03991   0.03672   0.00784  -0.01179   0.00371
  26 6   H  1S         -0.05791  -0.15339   0.02761  -0.09601   0.21387
  27 7   H  1S          0.15181  -0.17609   0.14901  -0.05890   0.01613
  28 8   H  1S         -0.08233   0.00771  -0.08103  -0.06026   0.12185
  29 9   H  1S         -0.00381   0.08495   0.04963   0.07222   0.03243
  30 10  H  1S          0.26223   0.22570  -0.01918  -0.13659   0.04117
  31 11  H  1S         -0.11862  -0.20204  -0.09632   0.29591   0.02814
  32 12  H  1S         -0.03688  -0.03833  -0.04285  -0.32571  -0.22027
  33 13  H  1S         -0.12369   0.15272  -0.14462   0.10428  -0.32307
                          11        12        13        14        15
     Eigenvalues --     2.00000   2.00000   2.00000   2.00000   2.00000
   1 1   C  1S         -0.17451  -0.19919   0.02941  -0.36418  -0.56397
   2        2S         -0.13071  -0.02308  -0.02150  -0.16316   0.02950
   3        2PX        -0.15570   0.09401  -0.03963   0.09623  -0.16924
   4        2PY         0.04852  -0.10436   0.03655   0.13744   0.16977
   5        2PZ         0.16279  -0.07334   0.11406   0.04134  -0.20427
   6 2   C  1S         -0.14717   0.50985   0.59263   0.08245  -0.05657
   7        2S          0.25478  -0.12755  -0.02452   0.04670   0.04856
   8        2PX         0.03079   0.24136  -0.31449  -0.06385  -0.10092
   9        2PY         0.14307   0.06091  -0.04929  -0.07358  -0.21014
  10        2PZ         0.23949  -0.02803   0.08756   0.10627  -0.11148
  11 3   C  1S         -0.46274  -0.24398  -0.07244   0.49186  -0.17003
  12        2S         -0.10977  -0.03762   0.11812   0.15740   0.02920
  13        2PX         0.16178  -0.21754   0.19899   0.02420  -0.02328
  14        2PY         0.00409   0.02278  -0.01662  -0.08791  -0.08190
  15        2PZ         0.01789   0.01413  -0.02609  -0.00941   0.00456
  16 4   C  1S          0.07840   0.29754   0.25398  -0.05200   0.08414
  17        2S         -0.10433   0.03567  -0.02387  -0.13762   0.02980
  18        2PX         0.00318   0.28177  -0.21475   0.25247  -0.03782
  19        2PY        -0.10332  -0.03810   0.05397  -0.01836   0.10608
  20        2PZ        -0.06109  -0.00942  -0.13226  -0.10599   0.17114
  21 5   C  1S          0.09217  -0.36729  -0.13980   0.22791  -0.04784
  22        2S          0.03723   0.17907  -0.12882   0.02340  -0.12671
  23        2PX         0.03973  -0.10049   0.04073  -0.17743   0.17220
  24        2PY         0.09340   0.07569  -0.14304  -0.00074   0.09703
  25        2PZ         0.02332  -0.00533  -0.01375  -0.02224   0.00478
  26 6   H  1S         -0.21897   0.13278  -0.10493  -0.05349  -0.02120
  27 7   H  1S          0.03292  -0.01623   0.06820  -0.00844  -0.22892
  28 8   H  1S         -0.07693   0.05598  -0.18553  -0.10942   0.02680
  29 9   H  1S          0.29267   0.10249  -0.16648   0.01093  -0.17244
  30 10  H  1S         -0.06832  -0.16206   0.01155  -0.25084   0.16109
  31 11  H  1S          0.01927  -0.15041   0.21123  -0.09667  -0.08558
  32 12  H  1S         -0.08793   0.02892   0.07321   0.07867  -0.14727
  33 13  H  1S         -0.06644   0.07795  -0.03799  -0.01659  -0.03032
                          16        17        18        19        20
     Eigenvalues --     2.00000   2.00000   2.00000   1.02576   0.97424
   1 1   C  1S          0.44677   0.43477  -0.06137   0.00135   0.00590
   2        2S         -0.18853  -0.02477   0.03602  -0.00422  -0.02662
   3        2PX         0.09299  -0.11162   0.16547  -0.01353   0.00507
   4        2PY         0.04414   0.13189   0.00283  -0.02186  -0.02094
   5        2PZ        -0.02931  -0.16360  -0.34094  -0.03037   0.03616
   6 2   C  1S          0.08749   0.06920  -0.01170  -0.00135   0.00590
   7        2S          0.19974  -0.11177   0.05840   0.00422  -0.02662
   8        2PX        -0.00110  -0.10958   0.03463   0.01353   0.00507
   9        2PY         0.06127  -0.17644  -0.00389  -0.02186   0.02094
  10        2PZ        -0.05554   0.08047   0.38921  -0.03037  -0.03616
  11 3   C  1S         -0.17935  -0.18944  -0.01365  -0.01245  -0.01085
  12        2S          0.30951  -0.11685   0.06253   0.05816   0.05192
  13        2PX        -0.05983   0.02335   0.02226   0.03961   0.03930
  14        2PY        -0.12220  -0.22580   0.01428  -0.04678  -0.04281
  15        2PZ        -0.02148   0.00047   0.05681   0.68738   0.71075
  16 4   C  1S         -0.10147  -0.11491  -0.11613  -0.00000   0.00355
  17        2S         -0.02841  -0.00555   0.07737   0.00000  -0.01679
  18        2PX         0.15883   0.20905  -0.12451   0.00000  -0.01171
  19        2PY         0.21387  -0.02880   0.04400  -0.01813   0.00000
  20        2PZ         0.01957  -0.03119   0.01325  -0.06209  -0.00000
  21 5   C  1S          0.01057   0.03031   0.00083   0.01245  -0.01085
  22        2S         -0.38433   0.22657  -0.11207  -0.05816   0.05193
  23        2PX        -0.01074  -0.02442  -0.03566  -0.03961   0.03930
  24        2PY         0.05613   0.06100  -0.09502  -0.04679   0.04282
  25        2PZ        -0.01446  -0.01923  -0.06474   0.68738  -0.71075
  26 6   H  1S         -0.00951  -0.01140   0.32479   0.09554  -0.08868
  27 7   H  1S         -0.06142  -0.21419  -0.26384  -0.11839   0.13077
  28 8   H  1S          0.11332  -0.17435  -0.33531   0.11839   0.13077
  29 9   H  1S          0.05498  -0.09034   0.28148  -0.09554  -0.08868
  30 10  H  1S         -0.08369  -0.12358   0.09339  -0.20789   0.00703
  31 11  H  1S         -0.09708  -0.08050   0.07660   0.20789   0.00703
  32 12  H  1S         -0.15886   0.06739   0.04967   0.01384  -0.01924
  33 13  H  1S          0.01789  -0.20649   0.01675  -0.01384  -0.01924
                          21        22        23        24        25
     Eigenvalues --     0.00000   0.00000   0.00000   0.00000   0.00000
   1 1   C  1S         -0.00866  -0.02057  -0.07124   0.04154   0.04840
   2        2S          0.02558   0.13142   0.42992  -0.29117  -0.30488
   3        2PX         0.44706  -0.11626  -0.06025  -0.36443  -0.39632
   4        2PY         0.50494  -0.06056   0.04932   0.21432   0.25172
   5        2PZ        -0.34224   0.65416   0.34258  -0.18137   0.17065
   6 2   C  1S          0.03977  -0.00748  -0.05662   0.06830   0.06817
   7        2S         -0.22387   0.02387   0.36111  -0.42912  -0.43505
   8        2PX        -0.50418  -0.12090  -0.70459  -0.20329  -0.09061
   9        2PY         0.43039  -0.00731   0.33024  -0.01013  -0.28020
  10        2PZ        -0.16390  -0.19514   0.04702   0.14674  -0.33169
  11 3   C  1S          0.02630   0.04982   0.07346   0.07008   0.03054
  12        2S         -0.14547  -0.29639  -0.43680  -0.41773  -0.17655
  13        2PX        -0.29866   0.02253  -0.74212   0.12701   0.49737
  14        2PY         0.24425  -0.45386   0.31900  -0.20592   0.61405
  15        2PZ         0.17806   0.04841   0.02269  -0.01658   0.04994
  16 4   C  1S         -0.00488  -0.01715   0.04910  -0.02441  -0.04082
  17        2S          0.04082   0.10802  -0.31187   0.12267   0.27856
  18        2PX        -0.22526  -0.69233   0.34556   0.18375   0.32615
  19        2PY         0.23787   0.26979  -0.05594  -0.08066   0.63050
  20        2PZ        -0.51312  -0.18849   0.39838  -0.02770   0.14003
  21 5   C  1S         -0.07286  -0.03074   0.03099   0.13458  -0.04244
  22        2S          0.43163   0.19855  -0.19681  -0.82465   0.24915
  23        2PX         0.19766  -0.29760  -0.18342   0.19906  -0.32353
  24        2PY         0.24354   0.31579   0.00555   0.42065  -0.23963
  25        2PZ         0.21341  -0.06292  -0.13574   0.02115  -0.05312
  26 6   H  1S         -0.23228   0.42479   0.12550   0.32278   0.52653
  27 7   H  1S          0.26315  -0.56678  -0.42867   0.42097   0.16781
  28 8   H  1S         -0.01403  -0.07554   0.05281   0.36598  -0.02403
  29 9   H  1S          0.27686   0.16527   0.05817   0.24621   0.50172
  30 10  H  1S          0.23493  -0.24319  -0.03365   0.08496  -0.02113
  31 11  H  1S         -0.50796  -0.56212   0.56239   0.04975   0.12762
  32 12  H  1S          0.04534   0.05578   0.07480   0.87783  -0.35348
  33 13  H  1S         -0.24679   0.49725  -0.20229   0.46216  -0.26446
                          26        27        28        29        30
     Eigenvalues --     0.00000   0.00000   0.00000  -0.00000  -0.00000
   1 1   C  1S         -0.02718  -0.14201  -0.05812  -0.14678  -0.02699
   2        2S          0.15914   0.86186   0.37443   0.90661   0.15297
   3        2PX         0.02053  -0.08993  -0.29509   0.06415   0.00562
   4        2PY        -0.08032   0.09409   0.18126   0.07704   0.57819
   5        2PZ        -0.40331   0.00993  -0.39777   0.07615   0.33364
   6 2   C  1S         -0.01398   0.04456   0.04332   0.19075  -0.00256
   7        2S          0.09795  -0.27171  -0.28854  -1.16628   0.05561
   8        2PX         0.19106   0.02282  -0.07956   0.11445   0.60496
   9        2PY         0.17552   0.26717   0.32479  -0.01912   0.68117
  10        2PZ         0.09902   0.08816   0.51221  -0.17632   0.03427
  11 3   C  1S         -0.00306   0.03295   0.06384  -0.12906  -0.00527
  12        2S          0.03854  -0.19625  -0.40639   0.77444   0.04672
  13        2PX         0.13951   0.25172   0.04104   0.21607   0.30260
  14        2PY         0.09460   0.34795  -0.44438  -0.20356  -0.04428
  15        2PZ        -0.10640   0.00325  -0.07151  -0.04576  -0.02355
  16 4   C  1S          0.00763  -0.20928   0.03633   0.10792   0.03969
  17        2S         -0.05232   1.29682  -0.22907  -0.66583  -0.26061
  18        2PX        -0.47833   0.09863   0.04180  -0.06835   0.26126
  19        2PY         0.47745  -0.10850   0.19689  -0.10848   0.18883
  20        2PZ         0.64560   0.01195  -0.06329   0.00747  -0.08863
  21 5   C  1S         -0.02696   0.11829  -0.03935   0.02472  -0.01353
  22        2S          0.14861  -0.71279   0.25518  -0.14571   0.05780
  23        2PX        -0.34832   0.06114  -0.58338  -0.29377   0.13739
  24        2PY         0.64198  -0.43279  -0.48594   0.16878   0.14263
  25        2PZ        -0.00827  -0.07370   0.01731  -0.02468  -0.01939
  26 6   H  1S         -0.32723  -0.32137  -0.13655  -0.35627   0.36715
  27 7   H  1S          0.26986  -0.34763   0.25879  -0.43842  -0.25093
  28 8   H  1S         -0.08879   0.12861   0.49856   0.32465  -0.26610
  29 9   H  1S         -0.25286  -0.08529  -0.24143   0.58256  -0.67368
  30 10  H  1S         -0.68905  -0.51700   0.14903   0.25183   0.34343
  31 11  H  1S          0.22972  -0.49901   0.03680   0.25866   0.18848
  32 12  H  1S          0.33296   0.08637  -0.64154   0.14465   0.16661
  33 13  H  1S         -0.10808  -0.10960   0.54537  -0.22864   0.04606
                          31        32        33
     Eigenvalues --    -0.00000  -0.00000  -0.00000
   1 1   C  1S          0.00363  -0.07831   0.03516
   2        2S          0.00701   0.50018  -0.22147
   3        2PX         0.80473  -0.18056  -0.02046
   4        2PY        -0.19662  -0.59549  -0.20733
   5        2PZ         0.14026  -0.17063   0.16834
   6 2   C  1S          0.02442  -0.09040   0.01429
   7        2S         -0.16975   0.55907  -0.08707
   8        2PX        -0.21371   0.06440  -0.01396
   9        2PY        -0.23219  -0.09536  -0.29496
  10        2PZ         0.16655  -0.17055   0.81971
  11 3   C  1S          0.10737   0.06173  -0.04796
  12        2S         -0.66428  -0.37358   0.30790
  13        2PX         0.41238   0.09668  -0.07613
  14        2PY        -0.03021   0.21383   0.48190
  15        2PZ        -0.03343   0.13967  -0.07913
  16 4   C  1S         -0.02232   0.02362   0.00877
  17        2S          0.11986  -0.17321  -0.04243
  18        2PX         0.29999   0.36879  -0.10238
  19        2PY         0.37137   0.40886   0.18760
  20        2PZ         0.19064  -0.47203  -0.25893
  21 5   C  1S         -0.07005   0.06682  -0.01859
  22        2S          0.42862  -0.41120   0.09468
  23        2PX         0.41134  -0.51414  -0.04729
  24        2PY         0.13404   0.22314   0.30168
  25        2PZ         0.02237   0.06565   0.02297
  26 6   H  1S         -0.40437  -0.44101   0.18349
  27 7   H  1S         -0.39269  -0.10747  -0.15365
  28 8   H  1S          0.31120  -0.38242   0.80580
  29 9   H  1S          0.11569  -0.11701  -0.38014
  30 10  H  1S          0.01522   0.60789   0.17950
  31 11  H  1S          0.26438  -0.13177  -0.26249
  32 12  H  1S         -0.00032   0.27272   0.14869
  33 13  H  1S          0.50724   0.06399  -0.55843
          Condensed to atoms (all electrons):
               1          2          3          4          5          6
     1  C    4.736288   0.358485  -0.034034  -0.034569   0.383397   0.379790
     2  C    0.358485   4.736288   0.383396  -0.034569  -0.034035  -0.018468
     3  C   -0.034034   0.383396   5.045213   0.379541  -0.037826   0.001273
     4  C   -0.034569  -0.034569   0.379541   4.718838   0.379541   0.001163
     5  C    0.383397  -0.034035  -0.037826   0.379541   5.045213  -0.021695
     6  H    0.379790  -0.018468   0.001273   0.001163  -0.021695   0.633936
     7  H    0.375544  -0.020336   0.000533   0.000735  -0.022961  -0.025294
     8  H   -0.020336   0.375545  -0.022961   0.000735   0.000533  -0.004892
     9  H   -0.018468   0.379790  -0.021695   0.001163   0.001273   0.000851
    10  H    0.000887   0.001095  -0.021919   0.374214  -0.021084  -0.000023
    11  H    0.001095   0.000887  -0.021084   0.374215  -0.021919  -0.000024
    12  H   -0.020555   0.001186   0.001322  -0.020569   0.387289  -0.000951
    13  H    0.001186  -0.020555   0.387289  -0.020569   0.001322  -0.000024
               7          8          9         10         11         12
     1  C    0.375544  -0.020336  -0.018468   0.000887   0.001095  -0.020555
     2  C   -0.020336   0.375545   0.379790   0.001095   0.000887   0.001186
     3  C    0.000533  -0.022961  -0.021695  -0.021919  -0.021084   0.001322
     4  C    0.000735   0.000735   0.001163   0.374214   0.374215  -0.020569
     5  C   -0.022961   0.000533   0.001273  -0.021084  -0.021919   0.387289
     6  H   -0.025294  -0.004892   0.000851  -0.000023  -0.000024  -0.000951
     7  H    0.643097   0.001576  -0.004892   0.000006  -0.000027  -0.000371
     8  H    0.001576   0.643097  -0.025294  -0.000027   0.000006  -0.000027
     9  H   -0.004892  -0.025294   0.633937  -0.000024  -0.000023  -0.000024
    10  H    0.000006  -0.000027  -0.000024   0.642183  -0.026639  -0.000745
    11  H   -0.000027   0.000006  -0.000023  -0.026639   0.642181  -0.000546
    12  H   -0.000371  -0.000027  -0.000024  -0.000745  -0.000546   0.605720
    13  H   -0.000027  -0.000371  -0.000951  -0.000546  -0.000745  -0.000024
              13
     1  C    0.001186
     2  C   -0.020555
     3  C    0.387289
     4  C   -0.020569
     5  C    0.001322
     6  H   -0.000024
     7  H   -0.000027
     8  H   -0.000371
     9  H   -0.000951
    10  H   -0.000546
    11  H   -0.000745
    12  H   -0.000024
    13  H    0.605720
 Mulliken charges:
               1
     1  C   -0.108710
     2  C   -0.108710
     3  C   -0.039048
     4  C   -0.119868
     5  C   -0.039048
     6  H    0.054358
     7  H    0.052417
     8  H    0.052417
     9  H    0.054358
    10  H    0.052621
    11  H    0.052622
    12  H    0.048295
    13  H    0.048295
 Sum of Mulliken charges =  -0.00000
 Mulliken charges with hydrogens summed into heavy atoms:
               1
     1  C   -0.001935
     2  C   -0.001935
     3  C    0.009247
     4  C   -0.014625
     5  C    0.009247
 Electronic spatial extent (au):  <R**2>=            381.3815
 Charge=             -0.0000 electrons
 Dipole moment (field-independent basis, Debye):
    X=              0.0591    Y=             -0.0000    Z=              0.0000  Tot=              0.0591
 Quadrupole moment (field-independent basis, Debye-Ang):
   XX=            -29.7545   YY=            -29.6956   ZZ=            -30.0582
   XY=             -0.0000   XZ=             -0.0000   YZ=             -0.0540
 Traceless Quadrupole moment (field-independent basis, Debye-Ang):
   XX=              0.0816   YY=              0.1405   ZZ=             -0.2221
   XY=             -0.0000   XZ=             -0.0000   YZ=             -0.0540
 Octapole moment (field-independent basis, Debye-Ang**2):
  XXX=             -0.3548  YYY=             -0.0000  ZZZ=              0.0000  XYY=             -0.4906
  XXY=              0.0000  XXZ=             -0.0000  XZZ=              0.5058  YZZ=              0.0000
  YYZ=             -0.0000  XYZ=              0.2035
 Hexadecapole moment (field-independent basis, Debye-Ang**3):
 XXXX=           -234.3149 YYYY=           -199.7983 ZZZZ=            -45.7362 XXXY=             -0.0001
 XXXZ=              0.0001 YYYX=             -0.0000 YYYZ=              1.0390 ZZZX=             -0.0000
 ZZZY=             -0.9668 XXYY=            -72.7075 XXZZ=            -43.7648 YYZZ=            -43.0945
 XXYZ=              0.6135 YYXZ=              0.0000 ZZXY=              0.0000
 N-N= 1.687600533234D+02 E-N=-7.837084995418D+02  KE= 1.902061793430D+02
 No NMR shielding tensors so no spin-rotation constants.
 Leave Link  601 at Wed Jun  2 22:27:06 2021, MaxMem=  1073741824 cpu:               0.3 elap:               0.1
 (Enter /Applications/g16/l9999.exe)
 1\1\GINC-MAC-MINI\SP\CASSCF\STO-3G\C5H8\TETSU\02-Jun-2021\0\\#p casscf
 (2,2)/sto-3g guess=read pop=no geom=allcheck\\Title Card Required\\0,1
 \C,0,1.024872,0.772022,-0.091024\C,0,1.024868,-0.772027,0.091022\C,0,-
 0.408439,-1.174719,-0.078831\C,0,-1.343203,0.000004,-0.000004\C,0,-0.4
 0843,1.174721,0.078841\H,0,1.697516,1.278691,0.615685\H,0,1.398694,1.0
 37633,-1.096417\H,0,1.3987,-1.037644,1.096409\H,0,1.697501,-1.278699,-
 0.615696\H,0,-2.022861,0.053956,-0.873123\H,0,-2.022885,-0.053944,0.87
 3094\H,0,-0.742327,2.206653,0.11941\H,0,-0.742342,-2.20665,-0.119391\\
 Version=EM64M-G16RevB.01\State=1-A\HF=-191.6093708\RMSD=0.000e+00\Dipo
 le=0.02324,0.0000005,-0.0000019\Quadrupole=0.0606739,0.1044329,-0.1651
 068,0.0000044,0.0000004,-0.0401772\PG=C01 [X(C5H8)]\\@


 NATURE WILL TELL YOU A DIRECT LIE IF SHE CAN.

                                -- CHARLES DARWIN
 Job cpu time:       0 days  0 hours  0 minutes 21.1 seconds.
 Elapsed time:       0 days  0 hours  0 minutes  4.9 seconds.
 File lengths (MBytes):  RWF=      6 Int=      0 D2E=      0 Chk=      1 Scr=      1
 Normal termination of Gaussian 16 at Wed Jun  2 22:27:06 2021.
 Initial command:
 /Applications/g16/l1.exe "/Applications/g16/Scratch/Gau-20571.inp" -scrdir="/Applications/g16/Scratch/"
 Entering Link 1 = /Applications/g16/l1.exe PID=     20577.
  
 Copyright (c) 1988-2017, Gaussian, Inc.  All Rights Reserved.
  
 This is part of the Gaussian(R) 16 program.  It is based on
 the Gaussian(R) 09 system (copyright 2009, Gaussian, Inc.),
 the Gaussian(R) 03 system (copyright 2003, Gaussian, Inc.),
 the Gaussian(R) 98 system (copyright 1998, Gaussian, Inc.),
 the Gaussian(R) 94 system (copyright 1995, Gaussian, Inc.),
 the Gaussian 92(TM) system (copyright 1992, Gaussian, Inc.),
 the Gaussian 90(TM) system (copyright 1990, Gaussian, Inc.),
 the Gaussian 88(TM) system (copyright 1988, Gaussian, Inc.),
 the Gaussian 86(TM) system (copyright 1986, Carnegie Mellon
 University), and the Gaussian 82(TM) system (copyright 1983,
 Carnegie Mellon University). Gaussian is a federally registered
 trademark of Gaussian, Inc.
  
 This software contains proprietary and confidential information,
 including trade secrets, belonging to Gaussian, Inc.
  
 This software is provided under written license and may be
 used, copied, transmitted, or stored only in accord with that
 written license.
  
 The following legend is applicable only to US Government
 contracts under FAR:
  
                    RESTRICTED RIGHTS LEGEND
  
 Use, reproduction and disclosure by the US Government is
 subject to restrictions as set forth in subparagraphs (a)
 and (c) of the Commercial Computer Software - Restricted
 Rights clause in FAR 52.227-19.
  
 Gaussian, Inc.
 340 Quinnipiac St., Bldg. 40, Wallingford CT 06492
  
  
 ---------------------------------------------------------------
 Warning -- This program may not be used in any manner that
 competes with the business of Gaussian, Inc. or will provide
 assistance to any competitor of Gaussian, Inc.  The licensee
 of this program is prohibited from giving any competitor of
 Gaussian, Inc. access to this program.  By using this program,
 the user acknowledges that Gaussian, Inc. is engaged in the
 business of creating and licensing software in the field of
 computational chemistry and represents and warrants to the
 licensee that it is not a competitor of Gaussian, Inc. and that
 it will not use this program in any manner prohibited above.
 ---------------------------------------------------------------
  

 Cite this work as:
 Gaussian 16, Revision B.01,
 M. J. Frisch, G. W. Trucks, H. B. Schlegel, G. E. Scuseria, 
 M. A. Robb, J. R. Cheeseman, G. Scalmani, V. Barone, 
 G. A. Petersson, H. Nakatsuji, X. Li, M. Caricato, A. V. Marenich, 
 J. Bloino, B. G. Janesko, R. Gomperts, B. Mennucci, H. P. Hratchian, 
 J. V. Ortiz, A. F. Izmaylov, J. L. Sonnenberg, D. Williams-Young, 
 F. Ding, F. Lipparini, F. Egidi, J. Goings, B. Peng, A. Petrone, 
 T. Henderson, D. Ranasinghe, V. G. Zakrzewski, J. Gao, N. Rega, 
 G. Zheng, W. Liang, M. Hada, M. Ehara, K. Toyota, R. Fukuda, 
 J. Hasegawa, M. Ishida, T. Nakajima, Y. Honda, O. Kitao, H. Nakai, 
 T. Vreven, K. Throssell, J. A. Montgomery, Jr., J. E. Peralta, 
 F. Ogliaro, M. J. Bearpark, J. J. Heyd, E. N. Brothers, K. N. Kudin, 
 V. N. Staroverov, T. A. Keith, R. Kobayashi, J. Normand, 
 K. Raghavachari, A. P. Rendell, J. C. Burant, S. S. Iyengar, 
 J. Tomasi, M. Cossi, J. M. Millam, M. Klene, C. Adamo, R. Cammi, 
 J. W. Ochterski, R. L. Martin, K. Morokuma, O. Farkas, 
 J. B. Foresman, and D. J. Fox, Gaussian, Inc., Wallingford CT, 2016.
 
 ******************************************
 Gaussian 16:  EM64M-G16RevB.01 20-Dec-2017
                 2-Jun-2021 
 ******************************************
 %nprocshared=6
 Will use up to    6 processors via shared memory.
 %mem=8GB
 %oldchk=drch_5_2.chk
 %chk=drch_5_3.chk
 Copying data from "drch_5_2.chk" to current chk file "drch_5_3.chk"
 IOpt=  2 FromEx=T IUOpen= 4 IOptOp= 5 NList=   0 IFRang= 0 IUIn= 4 IUOut= 2.
 -------------------------------------------------------
 #p casscf(2,2)/6-31g(d) guess=read pop=no geom=allcheck
 -------------------------------------------------------
 1/29=7,38=1,172=1/1;
 2/12=2,40=1/2;
 3/5=1,6=6,7=1,14=-4,25=1,116=101/1,2,3;
 4/5=1,17=2,18=2,43=1/1,5;
 5/5=2,17=1000000,38=6/10;
 6/7=2,8=2,9=2,10=2,22=-1,28=1,31=1/1;
 99/5=1,9=1/99;
 Leave Link    1 at Wed Jun  2 22:27:06 2021, MaxMem=  1073741824 cpu:               0.1 elap:               0.0
 (Enter /Applications/g16/l101.exe)
 Structure from the checkpoint file:  "drch_5_3.chk"
 -------------------
 Title Card Required
 -------------------
 Charge =  0 Multiplicity = 1
 Z-Matrix found in chk file.
 C,0,1.024872,0.772022,-0.091024
 C,0,1.024868,-0.772027,0.091022
 C,0,-0.408439,-1.174719,-0.078831
 C,0,-1.343203,0.000004,-0.000004
 C,0,-0.40843,1.174721,0.078841
 H,0,1.697516,1.278691,0.615685
 H,0,1.398694,1.037633,-1.096417
 H,0,1.3987,-1.037644,1.096409
 H,0,1.697501,-1.278699,-0.615696
 H,0,-2.022861,0.053956,-0.873123
 H,0,-2.022885,-0.053944,0.873094
 H,0,-0.742327,2.206653,0.11941
 H,0,-0.742342,-2.20665,-0.119391
 Recover connectivity data from disk.
 ITRead=  0  0  0  0  0  0  0  0  0  0  0  0  0
 MicOpt= -1 -1 -1 -1 -1 -1 -1 -1 -1 -1 -1 -1 -1
 NAtoms=     13 NQM=       13 NQMF=       0 NMMI=      0 NMMIF=      0
                NMic=       0 NMicF=      0.
                    Isotopes and Nuclear Properties:
 (Nuclear quadrupole moments (NQMom) in fm**2, nuclear magnetic moments (NMagM)
  in nuclear magnetons)

  Atom         1           2           3           4           5           6           7           8           9          10
 IAtWgt=          12          12          12          12          12           1           1           1           1           1
 AtmWgt=  12.0000000  12.0000000  12.0000000  12.0000000  12.0000000   1.0078250   1.0078250   1.0078250   1.0078250   1.0078250
 NucSpn=           0           0           0           0           0           1           1           1           1           1
 AtZEff=   3.6000000   3.6000000   3.6000000   3.6000000   3.6000000   1.0000000   1.0000000   1.0000000   1.0000000   1.0000000
 NQMom=    0.0000000   0.0000000   0.0000000   0.0000000   0.0000000   0.0000000   0.0000000   0.0000000   0.0000000   0.0000000
 NMagM=    0.0000000   0.0000000   0.0000000   0.0000000   0.0000000   2.7928460   2.7928460   2.7928460   2.7928460   2.7928460
 AtZNuc=   6.0000000   6.0000000   6.0000000   6.0000000   6.0000000   1.0000000   1.0000000   1.0000000   1.0000000   1.0000000

  Atom        11          12          13
 IAtWgt=           1           1           1
 AtmWgt=   1.0078250   1.0078250   1.0078250
 NucSpn=           1           1           1
 AtZEff=   1.0000000   1.0000000   1.0000000
 NQMom=    0.0000000   0.0000000   0.0000000
 NMagM=    2.7928460   2.7928460   2.7928460
 AtZNuc=   1.0000000   1.0000000   1.0000000
 Leave Link  101 at Wed Jun  2 22:27:07 2021, MaxMem=  1073741824 cpu:               0.7 elap:               0.1
 (Enter /Applications/g16/l202.exe)
                          Input orientation:                          
 ---------------------------------------------------------------------
 Center     Atomic      Atomic             Coordinates (Angstroms)
 Number     Number       Type             X           Y           Z
 ---------------------------------------------------------------------
      1          6           0        1.024872    0.772022   -0.091024
      2          6           0        1.024868   -0.772027    0.091022
      3          6           0       -0.408439   -1.174719   -0.078831
      4          6           0       -1.343203    0.000004   -0.000004
      5          6           0       -0.408430    1.174721    0.078841
      6          1           0        1.697516    1.278691    0.615685
      7          1           0        1.398694    1.037633   -1.096417
      8          1           0        1.398700   -1.037644    1.096409
      9          1           0        1.697501   -1.278699   -0.615696
     10          1           0       -2.022861    0.053956   -0.873123
     11          1           0       -2.022885   -0.053944    0.873094
     12          1           0       -0.742327    2.206653    0.119410
     13          1           0       -0.742342   -2.206650   -0.119391
 ---------------------------------------------------------------------
                    Distance matrix (angstroms):
                    1          2          3          4          5
     1  C    0.000000
     2  C    1.554744   0.000000
     3  C    2.417505   1.498459   0.000000
     4  C    2.492404   2.492404   1.503320   0.000000
     5  C    1.498458   2.417503   2.354725   1.503322   0.000000
     6  H    1.099364   2.221074   3.307056   3.355605   2.175780
[...]
  33        2PX        -0.22372  -0.04120   0.04045   0.23456  -0.02777
  34        2PY         0.13676  -0.09118  -0.10520   0.00242   0.14491
  35        2PZ         0.00520   0.14988  -0.00208   0.13990   0.04666
  36        3S         -0.33497  -0.24982  -0.63296   2.15285   0.51689
  37        3PX        -0.55110   0.06308  -1.47169  -1.62416   0.15292
  38        3PY         0.16633   1.25187   0.22542  -1.00087  -0.10917
  39        3PZ         0.23343  -0.45331   0.47434  -0.06427  -0.12873
  40        4XX        -0.38747  -0.02126   0.23951  -0.93596  -0.06320
  41        4YY         0.09224   0.06375   0.29842  -0.87580   0.08953
  42        4ZZ        -0.02190   0.17211   0.12695  -1.00313  -0.09112
  43        4XY        -0.13522  -0.09709  -0.03891   0.15157  -0.06223
  44        4XZ         0.04130   0.07555   0.07658   0.05429  -0.01936
  45        4YZ        -0.02294  -0.06256  -0.11521   0.00199   0.06544
  46 4   C  1S         -0.00960  -0.02145   0.16334  -0.08277   0.01054
  47        2S          0.07666   0.23663  -0.67231   0.25641   0.27248
  48        2PX         0.09756  -0.06467   0.04640   0.20458   0.13457
  49        2PY         0.32545   0.21922   0.09660   0.06800  -0.05618
  50        2PZ        -0.10054  -0.03420  -0.03262   0.09360   0.10849
  51        3S         -0.22909   0.08183  -0.63821   0.66137  -1.11605
  52        3PX        -0.36201   0.44966   0.50445  -0.56735  -0.09423
  53        3PY        -0.35968   0.20975  -1.06704  -2.22898   0.34799
  54        3PZ        -0.06282   0.55661  -0.31559  -0.11466  -0.12379
  55        4XX         0.08814  -0.08544   0.64052  -0.23959   0.30103
  56        4YY        -0.17511  -0.01747   0.65930  -0.16011   0.19423
  57        4ZZ         0.04776  -0.15215   0.57043  -0.35170   0.24525
  58        4XY         0.06028   0.20005  -0.12222  -0.27361  -0.13535
  59        4XZ         0.08278  -0.28025   0.10333  -0.18910   0.03153
  60        4YZ         0.00493  -0.01186   0.02756  -0.02820  -0.02529
  61 5   C  1S         -0.03472   0.03878  -0.02569  -0.03837   0.04346
  62        2S          0.19705  -0.59253  -0.19698   0.81128  -0.44662
  63        2PX         0.13675   0.14954  -0.04109  -0.05693   0.00669
  64        2PY         0.07316   0.11124   0.14874   0.10148   0.27350
  65        2PZ         0.02638   0.03505  -0.07455   0.28757  -0.01504
  66        3S          0.25676   0.43361   1.41806  -1.06976   0.82873
  67        3PX        -0.30706   0.14759   1.31246   1.47113  -0.47445
  68        3PY         0.34548   0.65132  -1.48435  -0.91123  -0.27682
  69        3PZ         0.17636  -0.15343  -0.03321  -0.42604   0.15102
  70        4XX        -0.07185   0.40132   0.07565  -0.33692  -0.05199
  71        4YY        -0.17875   0.13600  -0.10280  -0.41150  -0.02728
  72        4ZZ        -0.02855   0.17114  -0.03683  -0.20267  -0.49843
  73        4XY        -0.04840  -0.15634   0.13981   0.10326   0.10615
  74        4XZ        -0.02918   0.15476  -0.11530   0.02591   0.17301
  75        4YZ         0.03795  -0.02936  -0.05012  -0.09170  -0.01500
  76 6   H  1S         -0.56057  -0.14091  -0.00216   0.25149  -0.17855
  77        2S          0.08027  -0.08785   0.35566  -0.07434  -0.37738
  78 7   H  1S         -0.39260  -0.37233  -0.01340  -0.08268   0.05908
  79        2S          0.56524   0.19273  -1.36563   0.13533   0.08387
  80 8   H  1S          0.24310   0.41516  -0.03004   0.11280   0.13199
  81        2S         -0.51513   0.22943  -0.36328  -0.66126   0.38403
  82 9   H  1S          0.60194   0.00330   0.08465   0.03344  -0.01170
  83        2S         -0.76912   0.35634   1.14189  -0.01896  -0.10624
  84 10  H  1S          0.25204  -0.59835   0.18967  -0.11416  -0.08523
  85        2S         -0.48480   0.67373   0.28487  -0.29726   0.19758
  86 11  H  1S         -0.34309   0.68239  -0.11598   0.36466   0.03705
  87        2S          0.12910  -0.31950   0.34743  -0.81104  -0.08081
  88 12  H  1S          0.29570   0.08592  -0.16230   0.05811   0.25143
  89        2S         -0.26498   0.44673  -0.99751  -0.01193  -0.23101
  90 13  H  1S         -0.44240  -0.17644  -0.04667   0.08220   0.17097
  91        2S          0.14936  -0.58823  -0.17546  -0.03975  -0.28653
                          86        87        88        89        90
     Eigenvalues --    -0.00000  -0.00000  -0.00000  -0.00000  -0.00000
   1 1   C  1S          0.09924  -0.16676   0.13005  -0.01253  -0.00297
   2        2S         -0.80422   0.53605  -0.69322   0.25665  -0.26794
   3        2PX         0.02344  -0.08710  -0.03333   0.02637   0.19560
   4        2PY         0.03369   0.04011  -0.12652   0.05927   0.18178
   5        2PZ        -0.06687  -0.01900  -0.08398   0.07996   0.07324
   6        3S         -0.59122   1.83828  -0.53146  -0.09523   0.48119
   7        3PX        -0.22465   0.83274   0.13517  -0.58978   0.16177
   8        3PY        -0.26758   0.17523   0.67776   0.30331  -0.20072
   9        3PZ        -0.01750  -0.34075   0.11592  -0.14681  -0.33196
  10        4XX         0.53713  -0.63205   0.40868  -0.21235  -0.25598
  11        4YY         0.32723  -0.44972   0.36174   0.02089   0.24703
  12        4ZZ         0.28360  -0.58752   0.44122   0.10701   0.08825
  13        4XY         0.07769   0.05975   0.12681   0.00262  -0.06622
  14        4XZ         0.28096   0.01218   0.08070   0.07405  -0.09562
  15        4YZ        -0.19409  -0.10765   0.01147   0.01327  -0.04616
  16 2   C  1S         -0.04063  -0.08515   0.25088  -0.05357   0.01175
  17        2S         -0.80995   1.39070  -1.23745   0.55318  -0.14707
  18        2PX         0.12029  -0.06398   0.03082   0.20389  -0.18769
  19        2PY         0.08050  -0.03509   0.00021   0.15279   0.23330
  20        2PZ        -0.22970  -0.06465   0.01747  -0.01308  -0.04694
  21        3S          2.93361  -2.54962  -2.23654  -0.49803   0.00395
  22        3PX        -0.56224   1.30345   0.44583   0.37480   0.19524
  23        3PY        -0.25883   0.84905   0.76502  -0.08366  -0.00695
  24        3PZ        -0.00926  -0.00941  -0.34938  -0.31340   0.31120
  25        4XX         0.14127  -0.53706   1.04107  -0.35195   0.16542
  26        4YY        -0.05903  -0.24944   0.86353  -0.20634  -0.19838
  27        4ZZ        -0.06396  -0.07195   1.05345  -0.37777   0.13037
  28        4XY         0.10181   0.11155  -0.09340   0.04020  -0.01703
  29        4XZ        -0.02162   0.01440   0.05202   0.04987  -0.06103
  30        4YZ        -0.00898  -0.02701   0.01878   0.04306   0.00091
  31 3   C  1S         -0.07470  -0.06812  -0.04487   0.03607   0.04454
  32        2S          0.51830  -0.96721   0.49752  -1.22978   0.13595
  33        2PX         0.16651  -0.16893  -0.37945   0.00913   0.11418
  34        2PY        -0.22119   0.00048  -0.00855   0.07904   0.15177
  35        2PZ        -0.08718   0.04728   0.00898   0.12630   0.11045
  36        3S         -0.78431   4.23982   0.67871   2.09994  -0.45777
  37        3PX        -0.87663   0.46694   0.48014  -0.26528   0.18019
  38        3PY         1.70980  -1.69635  -1.77141  -0.71217  -0.28444
  39        3PZ         0.39806  -0.23840   0.01291  -0.10428  -0.15413
  40        4XX        -0.45956   0.11277  -0.21353   0.34151  -0.06661
  41        4YY        -0.23436  -0.04380  -0.25305   0.38785  -0.54166
  42        4ZZ        -0.10095  -0.17929   0.09017   0.55570   0.35005
  43        4XY         0.10464   0.10973   0.04341  -0.01485  -0.08207
  44        4XZ         0.13461   0.06900   0.10978   0.08299  -0.02363
  45        4YZ        -0.05540   0.05356  -0.07583   0.00188  -0.02507
  46 4   C  1S          0.01068  -0.00086   0.05777   0.13552   0.01264
  47        2S         -0.19566   0.42920   0.55711  -0.65979  -0.25016
  48        2PX        -0.08261   0.18374  -0.07791  -0.06095   0.02707
  49        2PY        -0.08631  -0.11552  -0.04172   0.16016   0.59174
  50        2PZ        -0.04297   0.07203   0.19107   0.13081   0.05374
  51        3S          0.63410  -1.94578  -2.65932  -0.37159   0.02168
  52        3PX         0.86821  -1.99682  -1.21117   0.53182  -0.10165
  53        3PY         0.34671  -0.25071   0.20998  -2.02342   0.07412
  54        3PZ        -0.33520  -0.33537  -0.42486  -0.35529  -0.25714
  55        4XX         0.14792  -0.37534  -0.26463   0.45667   0.08981
  56        4YY        -0.03813  -0.30381  -0.16482   0.48263   0.03419
  57        4ZZ         0.04451  -0.03158   0.06335   0.48301   0.10565
  58        4XY         0.12319   0.04355   0.03225  -0.22229   0.38761
  59        4XZ        -0.07330   0.13142  -0.03536   0.00685   0.15222
  60        4YZ         0.06585   0.03504  -0.04922  -0.04143   0.03827
  61 5   C  1S         -0.05295   0.00947   0.03506   0.20189  -0.12729
  62        2S         -0.13751  -0.83541  -0.50781  -0.08985   0.50752
  63        2PX         0.11635  -0.20381  -0.23038  -0.00500   0.03394
  64        2PY        -0.09040   0.01413   0.04511  -0.01850   0.11588
  65        2PZ         0.05650  -0.10770  -0.06450   0.06410  -0.03555
  66        3S          0.93474   1.93847   1.23308  -3.51001   0.53880
  67        3PX        -0.60891   0.16217   0.04922   0.73925  -0.26865
  68        3PY        -0.64736   0.79871   1.21063  -0.87459   0.05889
  69        3PZ         0.09902   0.33859   0.20976  -0.04223   0.20751
  70        4XX        -0.20480   0.26947   0.35623   0.61012  -0.08711
  71        4YY         0.07055   0.17060   0.25034   0.45588   0.14822
  72        4ZZ        -0.34697   0.20503   0.10037   0.52159  -0.68680
  73        4XY        -0.02330   0.14262   0.07837   0.15376  -0.00784
  74        4XZ         0.14026   0.04035   0.12176   0.11927   0.00700
  75        4YZ         0.22439   0.13394   0.05050  -0.06075   0.05238
  76 6   H  1S         -0.02578  -0.11964  -0.06069  -0.09409  -0.14968
  77        2S          0.16251  -0.78677   0.65006   0.42248  -0.32447
  78 7   H  1S         -0.13912  -0.00868  -0.05583   0.02098  -0.06099
  79        2S          0.27752  -0.35025   0.32892   0.28938  -0.03694
  80 8   H  1S         -0.33872  -0.03700  -0.11770  -0.07445  -0.03097
  81        2S         -0.39050  -0.28501  -0.10018  -0.21887   0.13144
  82 9   H  1S         -0.09617  -0.13341  -0.16517   0.02136  -0.06735
  83        2S         -0.30561  -0.32905   0.23535   0.14576  -0.11665
  84 10  H  1S          0.29308   0.25651  -0.05193   0.13700   0.03778
  85        2S          0.05946  -0.52298   0.44154   0.36908   0.10612
  86 11  H  1S          0.08473   0.15095   0.24568  -0.06441  -0.07505
  87        2S         -0.17481  -0.80104  -0.28686   0.37130  -0.24216
  88 12  H  1S         -0.02301  -0.03172   0.10884   0.00933  -0.52058
  89        2S         -1.10266  -0.11711   0.49459   0.45224   0.12408
  90 13  H  1S         -0.05350   0.07122   0.05344  -0.30804   0.59533
  91        2S         -1.23469  -0.04569   1.22279   0.19031   0.04316
                          91
     Eigenvalues --    -0.00000
   1 1   C  1S         -0.29871
   2        2S          2.78698
   3        2PX        -0.02613
   4        2PY         0.01043
   5        2PZ        -0.05421
   6        3S         -0.88354
   7        3PX         1.31810
   8        3PY        -0.23974
   9        3PZ         0.06470
  10        4XX        -1.36051
  11        4YY        -1.27529
  12        4ZZ        -1.17673
  13        4XY         0.02468
  14        4XZ         0.04712
  15        4YZ        -0.01379
  16 2   C  1S          0.01163
  17        2S         -0.15800
  18        2PX         0.22928
  19        2PY         0.00497
  20        2PZ        -0.14335
  21        3S          0.44279
  22        3PX        -0.95435
  23        3PY        -0.32411
  24        3PZ         0.28756
  25        4XX         0.18797
  26        4YY         0.17474
  27        4ZZ        -0.11109
  28        4XY        -0.00507
  29        4XZ        -0.10846
  30        4YZ        -0.01452
  31 3   C  1S         -0.05758
  32        2S          1.04668
  33        2PX        -0.02408
  34        2PY        -0.03367
  35        2PZ        -0.04994
  36        3S         -1.83719
  37        3PX        -0.07300
  38        3PY         0.24460
  39        3PZ         0.10483
  40        4XX        -0.22628
  41        4YY        -0.40866
  42        4ZZ        -0.12161
  43        4XY        -0.11363
  44        4XZ        -0.02552
  45        4YZ         0.01330
  46 4   C  1S          0.07836
  47        2S         -0.47328
  48        2PX        -0.19285
  49        2PY        -0.03497
  50        2PZ        -0.04862
  51        3S         -0.34486
  52        3PX         0.62075
  53        3PY         0.38744
  54        3PZ         0.00728
  55        4XX         0.24908
  56        4YY         0.28978
  57        4ZZ         0.18928
  58        4XY         0.02409
  59        4XZ        -0.02030
  60        4YZ         0.06993
  61 5   C  1S         -0.04487
  62        2S         -0.22591
  63        2PX         0.08894
  64        2PY        -0.00576
  65        2PZ         0.07018
  66        3S          1.55150
  67        3PX         0.57680
  68        3PY         0.39336
  69        3PZ         0.12405
  70        4XX         0.22274
  71        4YY        -0.01582
  72        4ZZ        -0.22339
  73        4XY         0.18003
  74        4XZ         0.14638
  75        4YZ         0.11826
  76 6   H  1S          0.09255
  77        2S         -0.47442
  78 7   H  1S          0.16199
  79        2S         -0.37265
  80 8   H  1S         -0.05326
  81        2S          0.40533
  82 9   H  1S          0.00345
  83        2S          0.30884
  84 10  H  1S          0.01574
  85        2S          0.43390
  86 11  H  1S         -0.02934
  87        2S          0.43060
  88 12  H  1S         -0.01438
  89        2S          0.00724
  90 13  H  1S          0.02757
  91        2S          0.35892
          Condensed to atoms (all electrons):
               1          2          3          4          5          6
     1  C    5.077387   0.334195  -0.065155  -0.068839   0.354787   0.398479
     2  C    0.334195   5.077385   0.354788  -0.068839  -0.065155  -0.032541
     3  C   -0.065155   0.354788   5.388989   0.347585  -0.064172   0.003934
     4  C   -0.068839  -0.068839   0.347585   5.022056   0.347581   0.003180
     5  C    0.354787  -0.065155  -0.064172   0.347581   5.388987  -0.041463
     6  H    0.398479  -0.032541   0.003934   0.003180  -0.041463   0.539321
     7  H    0.392662  -0.037514  -0.000011   0.003259  -0.047760  -0.034824
     8  H   -0.037513   0.392663  -0.047762   0.003259  -0.000011  -0.004104
     9  H   -0.032540   0.398478  -0.041462   0.003180   0.003934   0.001005
    10  H    0.001710   0.003715  -0.044853   0.395755  -0.041769  -0.000140
    11  H    0.003715   0.001711  -0.041771   0.395757  -0.044852   0.000027
    12  H   -0.032024   0.003572   0.003557  -0.031443   0.388825  -0.000297
    13  H    0.003572  -0.032024   0.388827  -0.031443   0.003557  -0.000059
               7          8          9         10         11         12
     1  C    0.392662  -0.037513  -0.032540   0.001710   0.003715  -0.032024
     2  C   -0.037514   0.392663   0.398478   0.003715   0.001711   0.003572
     3  C   -0.000011  -0.047762  -0.041462  -0.044853  -0.041771   0.003557
     4  C    0.003259   0.003259   0.003180   0.395755   0.395757  -0.031443
     5  C   -0.047760  -0.000011   0.003934  -0.041769  -0.044852   0.388825
     6  H   -0.034824  -0.004104   0.001005  -0.000140   0.000027  -0.000297
     7  H    0.560500   0.003383  -0.004104   0.000298  -0.000151  -0.000205
     8  H    0.003383   0.560500  -0.034824  -0.000151   0.000298  -0.000136
     9  H   -0.004104  -0.034824   0.539322   0.000027  -0.000140  -0.000059
    10  H    0.000298  -0.000151   0.000027   0.566038  -0.042891  -0.000232
    11  H   -0.000151   0.000298  -0.000140  -0.042891   0.566035  -0.000115
    12  H   -0.000205  -0.000136  -0.000059  -0.000232  -0.000115   0.489865
    13  H   -0.000136  -0.000204  -0.000297  -0.000115  -0.000231  -0.000062
              13
     1  C    0.003572
     2  C   -0.032024
     3  C    0.388827
     4  C   -0.031443
     5  C    0.003557
     6  H   -0.000059
     7  H   -0.000136
     8  H   -0.000204
     9  H   -0.000297
    10  H   -0.000115
    11  H   -0.000231
    12  H   -0.000062
    13  H    0.489861
 Mulliken charges:
               1
     1  C   -0.330435
     2  C   -0.330434
     3  C   -0.182495
     4  C   -0.321046
     5  C   -0.182488
     6  H    0.167482
     7  H    0.164602
     8  H    0.164603
     9  H    0.167483
    10  H    0.162608
    11  H    0.162610
    12  H    0.178754
    13  H    0.178756
 Sum of Mulliken charges =  -0.00000
 Mulliken charges with hydrogens summed into heavy atoms:
               1
     1  C    0.001650
     2  C    0.001652
     3  C   -0.003739
     4  C    0.004172
     5  C   -0.003734
 Electronic spatial extent (au):  <R**2>=            386.0368
 Charge=             -0.0000 electrons
 Dipole moment (field-independent basis, Debye):
    X=              0.0800    Y=              0.0000    Z=             -0.0000  Tot=              0.0800
 Quadrupole moment (field-independent basis, Debye-Ang):
   XX=            -31.6382   YY=            -31.3017   ZZ=            -32.8299
   XY=             -0.0000   XZ=              0.0000   YZ=             -0.0568
 Traceless Quadrupole moment (field-independent basis, Debye-Ang):
   XX=              0.2851   YY=              0.6215   ZZ=             -0.9066
   XY=             -0.0000   XZ=              0.0000   YZ=             -0.0568
 Octapole moment (field-independent basis, Debye-Ang**2):
  XXX=             -0.0167  YYY=              0.0001  ZZZ=              0.0000  XYY=             -1.0352
  XXY=              0.0000  XXZ=             -0.0001  XZZ=              1.0164  YZZ=             -0.0000
  YYZ=             -0.0001  XYZ=              0.2776
 Hexadecapole moment (field-independent basis, Debye-Ang**3):
 XXXX=           -254.6338 YYYY=           -212.6067 ZZZZ=            -56.0072 XXXY=             -0.0001
 XXXZ=              0.0001 YYYX=             -0.0001 YYYZ=              1.5380 ZZZX=              0.0000
 ZZZY=             -1.4496 XXYY=            -78.4239 XXZZ=            -49.0381 YYZZ=            -49.3936
 XXYZ=              1.0012 YYXZ=              0.0001 ZZXY=              0.0001
 N-N= 1.687600533234D+02 E-N=-7.886278528873D+02  KE= 1.936837217354D+02
 No NMR shielding tensors so no spin-rotation constants.
 Leave Link  601 at Wed Jun  2 22:27:22 2021, MaxMem=  1073741824 cpu:               0.7 elap:               0.1
 (Enter /Applications/g16/l9999.exe)
 1\1\GINC-MAC-MINI\SP\CASSCF\6-31G(d)\C5H8\TETSU\02-Jun-2021\0\\#p cass
 cf(2,2)/6-31g(d) guess=read pop=no geom=allcheck\\Title Card Required\
 \0,1\C,0,1.024872,0.772022,-0.091024\C,0,1.024868,-0.772027,0.091022\C
 ,0,-0.408439,-1.174719,-0.078831\C,0,-1.343203,0.000004,-0.000004\C,0,
 -0.40843,1.174721,0.078841\H,0,1.697516,1.278691,0.615685\H,0,1.398694
 ,1.037633,-1.096417\H,0,1.3987,-1.037644,1.096409\H,0,1.697501,-1.2786
 99,-0.615696\H,0,-2.022861,0.053956,-0.873123\H,0,-2.022885,-0.053944,
 0.873094\H,0,-0.742327,2.206653,0.11941\H,0,-0.742342,-2.20665,-0.1193
 91\\Version=EM64M-G16RevB.01\State=1-A\HF=-193.900369\RMSD=0.000e+00\D
 ipole=0.0314739,-0.0000012,0.0000028\Quadrupole=0.2119706,0.4620922,-0
 .6740628,0.0000072,-0.0000072,-0.0422109\PG=C01 [X(C5H8)]\\@


 IT IS IMPOSSIBLE TO MEDITATE ON TIME AND THE MYSTERY 
 OF NATURE WITHOUT AN OVERWHELMING EMOTION AT THE
 LIMITATIONS OF HUMAN INTELLIGENCE.

                                         -- ALFRED NORTH WHITEHEAD
 Job cpu time:       0 days  0 hours  1 minutes 19.5 seconds.
 Elapsed time:       0 days  0 hours  0 minutes 14.8 seconds.
 File lengths (MBytes):  RWF=      6 Int=      0 D2E=      0 Chk=      1 Scr=      1
 Normal termination of Gaussian 16 at Wed Jun  2 22:27:22 2021.
