 Entering Gaussian System, Link 0=g16
 Initial command:
 /Applications/g16/l1.exe "/Applications/g16/Scratch/Gau-20444.inp" -scrdir="/Applications/g16/Scratch/"
 Entering Link 1 = /Applications/g16/l1.exe PID=     20446.
  
 Copyright (c) 1988-2017, Gaussian, Inc.  All Rights Reserved.
  
 This is part of the Gaussian(R) 16 program.  It is based on
 the Gaussian(R) 09 system (copyright 2009, Gaussian, Inc.),
 the Gaussian(R) 03 system (copyright 2003, Gaussian, Inc.),
 the Gaussian(R) 98 system (copyright 1998, Gaussian, Inc.),
 the Gaussian(R) 94 system (copyright 1995, Gaussian, Inc.),
 the Gaussian 92(TM) system (copyright 1992, Gaussian, Inc.),
 the Gaussian 90(TM) system (copyright 1990, Gaussian, Inc.),
 the Gaussian 88(TM) system (copyright 1988, Gaussian, Inc.),
 the Gaussian 86(TM) system (copyright 1986, Carnegie Mellon
 University), and the Gaussian 82(TM) system (copyright 1983,
 Carnegie Mellon University). Gaussian is a federally registered
 trademark of Gaussian, Inc.
  
 This software contains proprietary and confidential information,
 including trade secrets, belonging to Gaussian, Inc.
  
 This software is provided under written license and may be
 used, copied, transmitted, or stored only in accord with that
 written license.
  
 The following legend is applicable only to US Government
 contracts under FAR:
  
                    RESTRICTED RIGHTS LEGEND
  
 Use, reproduction and disclosure by the US Government is
 subject to restrictions as set forth in subparagraphs (a)
 and (c) of the Commercial Computer Software - Restricted
 Rights clause in FAR 52.227-19.
  
 Gaussian, Inc.
 340 Quinnipiac St., Bldg. 40, Wallingford CT 06492
  
  
 ---------------------------------------------------------------
 Warning -- This program may not be used in any manner that
 competes with the business of Gaussian, Inc. or will provide
 assistance to any competitor of Gaussian, Inc.  The licensee
 of this program is prohibited from giving any competitor of
 Gaussian, Inc. access to this program.  By using this program,
 the user acknowledges that Gaussian, Inc. is engaged in the
 business of creating and licensing software in the field of
 computational chemistry and represents and warrants to the
 licensee that it is not a competitor of Gaussian, Inc. and that
 it will not use this program in any manner prohibited above.
 ---------------------------------------------------------------
  

 Cite this work as:
 Gaussian 16, Revision B.01,
 M. J. Frisch, G. W. Trucks, H. B. Schlegel, G. E. Scuseria, 
 M. A. Robb, J. R. Cheeseman, G. Scalmani, V. Barone, 
 G. A. Petersson, H. Nakatsuji, X. Li, M. Caricato, A. V. Marenich, 
 J. Bloino, B. G. Janesko, R. Gomperts, B. Mennucci, H. P. Hratchian, 
 J. V. Ortiz, A. F. Izmaylov, J. L. Sonnenberg, D. Williams-Young, 
 F. Ding, F. Lipparini, F. Egidi, J. Goings, B. Peng, A. Petrone, 
 T. Henderson, D. Ranasinghe, V. G. Zakrzewski, J. Gao, N. Rega, 
 G. Zheng, W. Liang, M. Hada, M. Ehara, K. Toyota, R. Fukuda, 
 J. Hasegawa, M. Ishida, T. Nakajima, Y. Honda, O. Kitao, H. Nakai, 
 T. Vreven, K. Throssell, J. A. Montgomery, Jr., J. E. Peralta, 
 F. Ogliaro, M. J. Bearpark, J. J. Heyd, E. N. Brothers, K. N. Kudin, 
 V. N. Staroverov, T. A. Keith, R. Kobayashi, J. Normand, 
 K. Raghavachari, A. P. Rendell, J. C. Burant, S. S. Iyengar, 
 J. Tomasi, M. Cossi, J. M. Millam, M. Klene, C. Adamo, R. Cammi, 
 J. W. Ochterski, R. L. Martin, K. Morokuma, O. Farkas, 
 J. B. Foresman, and D. J. Fox, Gaussian, Inc., Wallingford CT, 2016.
 
 ******************************************
 Gaussian 16:  EM64M-G16RevB.01 20-Dec-2017
                 2-Jun-2021 
 ******************************************
 %nprocshared=6
 Will use up to    6 processors via shared memory.
 %mem=8GB
 %chk=drch_2_1.chk
 ---------------
 #p uhf/6-31g(d)
 ---------------
 1/38=1,172=1/1;
 2/12=2,17=6,18=5,40=1/2;
 3/5=1,6=6,7=1,11=2,25=1,30=1,116=2/1,2,3;
 4//1;
 5/5=2,38=5/2;
 6/7=2,8=2,9=2,10=2,28=1/1;
 99/5=1,9=1/99;
 Leave Link    1 at Wed Jun  2 22:12:46 2021, MaxMem=  1073741824 cpu:               1.6 elap:               0.3
 (Enter /Applications/g16/l101.exe)
 -------------------
 Title Card Required
 -------------------
 Symbolic Z-matrix:
 Charge =  0 Multiplicity = 1
 C                     1.02487   0.77202  -0.09102 
 C                     1.02487  -0.77203   0.09102 
 C                    -0.40844  -1.17472  -0.07883 
 C                    -1.3432    0.       0. 
 C                    -0.40843   1.17472   0.07884 
 H                     1.69752   1.27869   0.61569 
 H                     1.39869   1.03763  -1.09642 
 H                     1.3987   -1.03764   1.09641 
 H                     1.6975   -1.2787   -0.6157 
 H                    -2.02286   0.05396  -0.87312 
 H                    -2.02289  -0.05394   0.87309 
 H                    -0.74233   2.20665   0.11941 
 H                    -0.74234  -2.20665  -0.11939 
 
 ITRead=  0  0  0  0  0  0  0  0  0  0  0  0  0
 MicOpt= -1 -1 -1 -1 -1 -1 -1 -1 -1 -1 -1 -1 -1
 NAtoms=     13 NQM=       13 NQMF=       0 NMMI=      0 NMMIF=      0
                NMic=       0 NMicF=      0.
                    Isotopes and Nuclear Properties:
 (Nuclear quadrupole moments (NQMom) in fm**2, nuclear magnetic moments (NMagM)
  in nuclear magnetons)

  Atom         1           2           3           4           5           6           7           8           9          10
 IAtWgt=          12          12          12          12          12           1           1           1           1           1
 AtmWgt=  12.0000000  12.0000000  12.0000000  12.0000000  12.0000000   1.0078250   1.0078250   1.0078250   1.0078250   1.0078250
 NucSpn=           0           0           0           0           0           1           1           1           1           1
 AtZEff=  -0.0000000  -0.0000000  -0.0000000  -0.0000000  -0.0000000  -0.0000000  -0.0000000  -0.0000000  -0.0000000  -0.0000000
 NQMom=    0.0000000   0.0000000   0.0000000   0.0000000   0.0000000   0.0000000   0.0000000   0.0000000   0.0000000   0.0000000
 NMagM=    0.0000000   0.0000000   0.0000000   0.0000000   0.0000000   2.7928460   2.7928460   2.7928460   2.7928460   2.7928460
 AtZNuc=   6.0000000   6.0000000   6.0000000   6.0000000   6.0000000   1.0000000   1.0000000   1.0000000   1.0000000   1.0000000

  Atom        11          12          13
 IAtWgt=           1           1           1
 AtmWgt=   1.0078250   1.0078250   1.0078250
 NucSpn=           1           1           1
 AtZEff=  -0.0000000  -0.0000000  -0.0000000
 NQMom=    0.0000000   0.0000000   0.0000000
 NMagM=    2.7928460   2.7928460   2.7928460
 AtZNuc=   1.0000000   1.0000000   1.0000000
 Leave Link  101 at Wed Jun  2 22:12:46 2021, MaxMem=  1073741824 cpu:               0.7 elap:               0.1
 (Enter /Applications/g16/l202.exe)
                          Input orientation:                          
 ---------------------------------------------------------------------
 Center     Atomic      Atomic             Coordinates (Angstroms)
 Number     Number       Type             X           Y           Z
 ---------------------------------------------------------------------
      1          6           0        1.024872    0.772022   -0.091024
      2          6           0        1.024868   -0.772027    0.091022
      3          6           0       -0.408439   -1.174719   -0.078831
      4          6           0       -1.343203    0.000004   -0.000004
      5          6           0       -0.408430    1.174721    0.078841
      6          1           0        1.697516    1.278691    0.615685
      7          1           0        1.398694    1.037633   -1.096417
      8          1           0        1.398700   -1.037644    1.096409
      9          1           0        1.697501   -1.278699   -0.615696
     10          1           0       -2.022861    0.053956   -0.873123
     11          1           0       -2.022885   -0.053944    0.873094
     12          1           0       -0.742327    2.206653    0.119410
     13          1           0       -0.742342   -2.206650   -0.119391
 ---------------------------------------------------------------------
                    Distance matrix (angstroms):
                    1          2          3          4          5
     1  C    0.000000
     2  C    1.554744   0.000000
     3  C    2.417505   1.498459   0.000000
     4  C    2.492404   2.492404   1.503320   0.000000
     5  C    1.498458   2.417503   2.354725   1.503322   0.000000
     6  H    1.099364   2.221074   3.307056   3.355605   2.175780
     7  H    1.105037   2.196503   3.032443   3.129983   2.160028
     8  H    2.196505   1.105037   2.160030   3.129995   3.032445
     9  H    2.221073   1.099364   2.175780   3.355598   3.307053
    10  H    3.227379   3.301587   2.178738   1.107783   2.183744
    11  H    3.301601   3.227395   2.183743   1.107781   2.178743
    12  H    2.285922   3.463570   3.403595   2.290112   1.085365
    13  H    3.463573   2.285924   1.085365   2.290111   3.403596
                    6          7          8          9         10
     6  H    0.000000
     7  H    1.754622   0.000000
     8  H    2.384490   3.019149   0.000000
     9  H    2.838405   2.384486   1.754620   0.000000
    10  H    4.190195   3.567144   4.096062   3.960219   0.000000
    11  H    3.960247   4.096061   3.567181   4.190202   1.749547
    12  H    2.657111   2.725585   4.007990   4.317502   2.694252
    13  H    4.317505   4.007990   2.725584   2.657112   2.705214
                   11         12         13
    11  H    0.000000
    12  H    2.705211   0.000000
    13  H    2.694246   4.419759   0.000000
 Stoichiometry    C5H8
 Framework group  C1[X(C5H8)]
 Deg. of freedom    33
 Full point group                 C1      NOp   1
 Largest Abelian subgroup         C1      NOp   1
 Largest concise Abelian subgroup C1      NOp   1
                         Standard orientation:                         
 ---------------------------------------------------------------------
 Center     Atomic      Atomic             Coordinates (Angstroms)
 Number     Number       Type             X           Y           Z
 ---------------------------------------------------------------------
      1          6           0        1.024873   -0.772021    0.091024
      2          6           0        1.024867    0.772028   -0.091022
      3          6           0       -0.408440    1.174719    0.078831
      4          6           0       -1.343203   -0.000005    0.000004
      5          6           0       -0.408429   -1.174721   -0.078841
      6          1           0        1.697517   -1.278689   -0.615685
      7          1           0        1.398695   -1.037631    1.096417
      8          1           0        1.398699    1.037646   -1.096409
      9          1           0        1.697500    1.278701    0.615696
     10          1           0       -2.022861   -0.053958    0.873123
     11          1           0       -2.022885    0.053942   -0.873094
     12          1           0       -0.742325   -2.206654   -0.119410
     13          1           0       -0.742344    2.206649    0.119391
 ---------------------------------------------------------------------
 Rotational constants (GHZ):           7.4527778           6.7324824           3.8090596
 Leave Link  202 at Wed Jun  2 22:12:46 2021, MaxMem=  1073741824 cpu:               0.0 elap:               0.0
 (Enter /Applications/g16/l301.exe)
 Standard basis: 6-31G(d) (6D, 7F)
 Ernie: Thresh=  0.10000D-02 Tol=  0.10000D-05 Strict=F.
 There are    91 symmetry adapted cartesian basis functions of A   symmetry.
 There are    91 symmetry adapted basis functions of A   symmetry.
    91 basis functions,   172 primitive gaussians,    91 cartesian basis functions
    19 alpha electrons       19 beta electrons
       nuclear repulsion energy       168.7600533234 Hartrees.
 IExCor=    0 DFT=F Ex=HF Corr=None ExCW=0 ScaHFX=  1.000000
 ScaDFX=  1.000000  1.000000  1.000000  1.000000 ScalE2=  1.000000  1.000000
 IRadAn=      5 IRanWt=     -1 IRanGd=            0 ICorTp=0 IEmpDi=  4
 NAtoms=   13 NActive=   13 NUniq=   13 SFac= 1.00D+00 NAtFMM=   60 NAOKFM=F Big=F
 Integral buffers will be    131072 words long.
 Raffenetti 2 integral format.
 Two-electron integral symmetry is turned on.
 Leave Link  301 at Wed Jun  2 22:12:46 2021, MaxMem=  1073741824 cpu:               0.2 elap:               0.0
 (Enter /Applications/g16/l302.exe)
 NPDir=0 NMtPBC=     1 NCelOv=     1 NCel=       1 NClECP=     1 NCelD=      1
         NCelK=      1 NCelE2=     1 NClLst=     1 CellRange=     0.0.
 One-electron integrals computed using PRISM.
 One-electron integral symmetry used in STVInt
 NBasis=    91 RedAO= T EigKep=  3.84D-03  NBF=    91
 NBsUse=    91 1.00D-06 EigRej= -1.00D+00 NBFU=    91
 Leave Link  302 at Wed Jun  2 22:12:46 2021, MaxMem=  1073741824 cpu:               0.5 elap:               0.1
 (Enter /Applications/g16/l303.exe)
 DipDrv:  MaxL=1.
 Leave Link  303 at Wed Jun  2 22:12:46 2021, MaxMem=  1073741824 cpu:               0.1 elap:               0.0
 (Enter /Applications/g16/l401.exe)
 ExpMin= 1.61D-01 ExpMax= 3.05D+03 ExpMxC= 4.57D+02 IAcc=3 IRadAn=         5 AccDes= 0.00D+00
 Harris functional with IExCor=  205 and IRadAn=       5 diagonalized for initial guess.
 HarFok:  IExCor=  205 AccDes= 0.00D+00 IRadAn=         5 IDoV= 1 UseB2=F ITyADJ=14
 ICtDFT=  3500011 ScaDFX=  1.000000  1.000000  1.000000  1.000000
 FoFCou: FMM=F IPFlag=           0 FMFlag=      100000 FMFlg1=           0
         NFxFlg=           0 DoJE=T BraDBF=F KetDBF=T FulRan=T
         wScrn=  0.000000 ICntrl=       500 IOpCl=  0 I1Cent=   200000004 NGrid=           0
         NMat0=    1 NMatS0=      1 NMatT0=    0 NMatD0=    1 NMtDS0=    0 NMtDT0=    0
 Petite list used in FoFCou.
 Harris En= -194.247758520852    
 JPrj=0 DoOrth=F DoCkMO=F.
 Initial guess <Sx>= 0.0000 <Sy>= 0.0000 <Sz>= 0.0000 <S**2>=-0.0000 S=-0.0000
 Leave Link  401 at Wed Jun  2 22:12:47 2021, MaxMem=  1073741824 cpu:               1.8 elap:               0.4
 (Enter /Applications/g16/l502.exe)
 Keep R1 and R2 ints in memory in canonical form, NReq=18402985.
 FoFCou: FMM=F IPFlag=           0 FMFlag=           0 FMFlg1=           0
         NFxFlg=           0 DoJE=F BraDBF=F KetDBF=F FulRan=T
         wScrn=  0.000000 ICntrl=       600 IOpCl=  0 I1Cent=           0 NGrid=           0
         NMat0=    1 NMatS0=   4186 NMatT0=    0 NMatD0=    1 NMtDS0=    0 NMtDT0=    0
 Symmetry not used in FoFCou.
 Two-electron integral symmetry not used.
 UHF open shell SCF:
 Using DIIS extrapolation, IDIIS=  1040.
 NGot=  1073741824 LenX=  1056196692 LenY=  1056187970
 Requested convergence on RMS density matrix=1.00D-08 within 128 cycles.
 Requested convergence on MAX density matrix=1.00D-06.
 Requested convergence on             energy=1.00D-06.
 No special actions if energy rises.

 Cycle   1  Pass 1  IDiag  1:
 E= -193.471560850540    
 DIIS: error= 6.05D-02 at cycle   1 NSaved=   1.
 NSaved= 1 IEnMin= 1 EnMin= -193.471560850540     IErMin= 1 ErrMin= 6.05D-02
 ErrMax= 6.05D-02  0.00D+00 EMaxC= 1.00D-01 BMatC= 1.48D+00 BMatP= 1.48D+00
 IDIUse=3 WtCom= 3.95D-01 WtEn= 6.05D-01
 Coeff-Com:  0.100D+01
 Coeff-En:   0.100D+01
 Coeff:      0.100D+01
 Gap=     0.187 Goal=   None    Shift=    0.000
 Gap=     0.187 Goal=   None    Shift=    0.000
 GapD=    0.187 DampG=1.000 DampE=0.500 DampFc=0.5000 IDamp=-1.
 Damping current iteration by 5.00D-01
 RMSDP=7.89D-03 MaxDP=1.22D-01              OVMax= 1.51D-01

 Cycle   2  Pass 1  IDiag  1:
 E= -193.621398062476     Delta-E=       -0.149837211935 Rises=F Damp=T
 DIIS: error= 3.74D-02 at cycle   2 NSaved=   2.
 NSaved= 2 IEnMin= 2 EnMin= -193.621398062476     IErMin= 2 ErrMin= 3.74D-02
 ErrMax= 3.74D-02  0.00D+00 EMaxC= 1.00D-01 BMatC= 2.94D-01 BMatP= 1.48D+00
 IDIUse=3 WtCom= 6.26D-01 WtEn= 3.74D-01
 Coeff-Com: -0.559D+00 0.156D+01
 Coeff-En:   0.000D+00 0.100D+01
 Coeff:     -0.350D+00 0.135D+01
 Gap=     0.195 Goal=   None    Shift=    0.000
 Gap=     0.195 Goal=   None    Shift=    0.000
 RMSDP=2.57D-03 MaxDP=3.09D-02 DE=-1.50D-01 OVMax= 4.68D-02

 Cycle   3  Pass 1  IDiag  1:
 E= -193.752751675822     Delta-E=       -0.131353613347 Rises=F Damp=F
 DIIS: error= 3.39D-03 at cycle   3 NSaved=   3.
 NSaved= 3 IEnMin= 3 EnMin= -193.752751675822     IErMin= 3 ErrMin= 3.39D-03
 ErrMax= 3.39D-03  0.00D+00 EMaxC= 1.00D-01 BMatC= 2.45D-03 BMatP= 2.94D-01
 IDIUse=3 WtCom= 9.66D-01 WtEn= 3.39D-02
 Coeff-Com: -0.204D-01-0.703D-02 0.103D+01
 Coeff-En:   0.000D+00 0.000D+00 0.100D+01
 Coeff:     -0.197D-01-0.679D-02 0.103D+01
 Gap=     0.193 Goal=   None    Shift=    0.000
 Gap=     0.193 Goal=   None    Shift=    0.000
 RMSDP=3.67D-04 MaxDP=5.16D-03 DE=-1.31D-01 OVMax= 8.88D-03

 Cycle   4  Pass 1  IDiag  1:
 E= -193.753421901128     Delta-E=       -0.000670225305 Rises=F Damp=F
 DIIS: error= 7.64D-04 at cycle   4 NSaved=   4.
 NSaved= 4 IEnMin= 4 EnMin= -193.753421901128     IErMin= 4 ErrMin= 7.64D-04
 ErrMax= 7.64D-04  0.00D+00 EMaxC= 1.00D-01 BMatC= 1.20D-04 BMatP= 2.45D-03
 IDIUse=3 WtCom= 9.92D-01 WtEn= 7.64D-03
 Coeff-Com:  0.781D-02-0.191D-01-0.611D-05 0.101D+01
 Coeff-En:   0.000D+00 0.000D+00 0.000D+00 0.100D+01
 Coeff:      0.775D-02-0.189D-01-0.606D-05 0.101D+01
 Gap=     0.193 Goal=   None    Shift=    0.000
 Gap=     0.193 Goal=   None    Shift=    0.000
 RMSDP=1.29D-04 MaxDP=1.27D-03 DE=-6.70D-04 OVMax= 2.06D-03

 Cycle   5  Pass 1  IDiag  1:
 E= -193.753477903271     Delta-E=       -0.000056002143 Rises=F Damp=F
 DIIS: error= 3.39D-04 at cycle   5 NSaved=   5.
 NSaved= 5 IEnMin= 5 EnMin= -193.753477903271     IErMin= 5 ErrMin= 3.39D-04
 ErrMax= 3.39D-04  0.00D+00 EMaxC= 1.00D-01 BMatC= 1.43D-05 BMatP= 1.20D-04
 IDIUse=3 WtCom= 9.97D-01 WtEn= 3.39D-03
 Coeff-Com:  0.237D-02-0.176D-02-0.643D-01 0.147D-01 0.105D+01
 Coeff-En:   0.000D+00 0.000D+00 0.000D+00 0.000D+00 0.100D+01
 Coeff:      0.236D-02-0.176D-02-0.641D-01 0.147D-01 0.105D+01
 Gap=     0.193 Goal=   None    Shift=    0.000
 Gap=     0.193 Goal=   None    Shift=    0.000
 RMSDP=5.22D-05 MaxDP=6.10D-04 DE=-5.60D-05 OVMax= 1.28D-03

 Cycle   6  Pass 1  IDiag  1:
 E= -193.753485907588     Delta-E=       -0.000008004317 Rises=F Damp=F
 DIIS: error= 8.26D-05 at cycle   6 NSaved=   6.
 NSaved= 6 IEnMin= 6 EnMin= -193.753485907588     IErMin= 6 ErrMin= 8.26D-05
 ErrMax= 8.26D-05  0.00D+00 EMaxC= 1.00D-01 BMatC= 1.43D-06 BMatP= 1.43D-05
 IDIUse=1 WtCom= 1.00D+00 WtEn= 0.00D+00
 Coeff-Com:  0.464D-04 0.635D-03-0.975D-02-0.901D-01 0.167D+00 0.932D+00
 Coeff:      0.464D-04 0.635D-03-0.975D-02-0.901D-01 0.167D+00 0.932D+00
 Gap=     0.193 Goal=   None    Shift=    0.000
 Gap=     0.193 Goal=   None    Shift=    0.000
 RMSDP=1.65D-05 MaxDP=1.94D-04 DE=-8.00D-06 OVMax= 3.18D-04

 Cycle   7  Pass 1  IDiag  1:
 E= -193.753486671497     Delta-E=       -0.000000763908 Rises=F Damp=F
 DIIS: error= 1.74D-05 at cycle   7 NSaved=   7.
 NSaved= 7 IEnMin= 7 EnMin= -193.753486671497     IErMin= 7 ErrMin= 1.74D-05
 ErrMax= 1.74D-05  0.00D+00 EMaxC= 1.00D-01 BMatC= 1.02D-07 BMatP= 1.43D-06
 IDIUse=1 WtCom= 1.00D+00 WtEn= 0.00D+00
 Coeff-Com: -0.409D-04-0.131D-03 0.450D-02 0.681D-02-0.609D-01-0.117D+00
 Coeff-Com:  0.117D+01
 Coeff:     -0.409D-04-0.131D-03 0.450D-02 0.681D-02-0.609D-01-0.117D+00
 Coeff:      0.117D+01
 Gap=     0.193 Goal=   None    Shift=    0.000
 Gap=     0.193 Goal=   None    Shift=    0.000
 RMSDP=6.56D-06 MaxDP=1.08D-04 DE=-7.64D-07 OVMax= 2.02D-04

 Cycle   8  Pass 1  IDiag  1:
 E= -193.753486737667     Delta-E=       -0.000000066170 Rises=F Damp=F
 DIIS: error= 1.58D-05 at cycle   8 NSaved=   8.
 NSaved= 8 IEnMin= 8 EnMin= -193.753486737667     IErMin= 8 ErrMin= 1.58D-05
 ErrMax= 1.58D-05  0.00D+00 EMaxC= 1.00D-01 BMatC= 9.25D-08 BMatP= 1.02D-07
 IDIUse=1 WtCom= 1.00D+00 WtEn= 0.00D+00
 Coeff-Com: -0.266D-04-0.229D-03 0.486D-02 0.225D-01-0.714D-01-0.266D+00
 Coeff-Com:  0.733D+00 0.578D+00
 Coeff:     -0.266D-04-0.229D-03 0.486D-02 0.225D-01-0.714D-01-0.266D+00
 Coeff:      0.733D+00 0.578D+00
 Gap=     0.193 Goal=   None    Shift=    0.000
 Gap=     0.193 Goal=   None    Shift=    0.000
 RMSDP=2.83D-06 MaxDP=4.75D-05 DE=-6.62D-08 OVMax= 1.19D-04

 Cycle   9  Pass 1  IDiag  1:
 E= -193.753486770526     Delta-E=       -0.000000032859 Rises=F Damp=F
 DIIS: error= 4.83D-06 at cycle   9 NSaved=   9.
 NSaved= 9 IEnMin= 9 EnMin= -193.753486770526     IErMin= 9 ErrMin= 4.83D-06
 ErrMax= 4.83D-06  0.00D+00 EMaxC= 1.00D-01 BMatC= 3.21D-09 BMatP= 9.25D-08
 IDIUse=1 WtCom= 1.00D+00 WtEn= 0.00D+00
 Coeff-Com:  0.992D-05 0.307D-04-0.103D-02-0.225D-02 0.146D-01 0.336D-01
 Coeff-Com: -0.221D+00-0.385D-01 0.121D+01
 Coeff:      0.992D-05 0.307D-04-0.103D-02-0.225D-02 0.146D-01 0.336D-01
 Coeff:     -0.221D+00-0.385D-01 0.121D+01
 Gap=     0.193 Goal=   None    Shift=    0.000
 Gap=     0.193 Goal=   None    Shift=    0.000
 RMSDP=1.35D-06 MaxDP=2.88D-05 DE=-3.29D-08 OVMax= 3.76D-05

 Cycle  10  Pass 1  IDiag  1:
 E= -193.753486774309     Delta-E=       -0.000000003783 Rises=F Damp=F
 DIIS: error= 2.49D-06 at cycle  10 NSaved=  10.
 NSaved=10 IEnMin=10 EnMin= -193.753486774309     IErMin=10 ErrMin= 2.49D-06
 ErrMax= 2.49D-06  0.00D+00 EMaxC= 1.00D-01 BMatC= 5.68D-10 BMatP= 3.21D-09
 IDIUse=1 WtCom= 1.00D+00 WtEn= 0.00D+00
 Coeff-Com:  0.337D-05 0.406D-04-0.858D-03-0.345D-02 0.121D-01 0.421D-01
 Coeff-Com: -0.134D+00-0.914D-01 0.154D+00 0.102D+01
 Coeff:      0.337D-05 0.406D-04-0.858D-03-0.345D-02 0.121D-01 0.421D-01
 Coeff:     -0.134D+00-0.914D-01 0.154D+00 0.102D+01
 Gap=     0.193 Goal=   None    Shift=    0.000
 Gap=     0.193 Goal=   None    Shift=    0.000
 RMSDP=5.08D-07 MaxDP=1.11D-05 DE=-3.78D-09 OVMax= 1.84D-05

 Cycle  11  Pass 1  IDiag  1:
 E= -193.753486775009     Delta-E=       -0.000000000700 Rises=F Damp=F
 DIIS: error= 1.20D-06 at cycle  11 NSaved=  11.
 NSaved=11 IEnMin=11 EnMin= -193.753486775009     IErMin=11 ErrMin= 1.20D-06
 ErrMax= 1.20D-06  0.00D+00 EMaxC= 1.00D-01 BMatC= 9.94D-11 BMatP= 5.68D-10
 IDIUse=1 WtCom= 1.00D+00 WtEn= 0.00D+00
 Coeff-Com: -0.503D-05-0.197D-04 0.562D-03 0.199D-02-0.830D-02-0.249D-01
 Coeff-Com:  0.105D+00 0.429D-01-0.320D+00-0.401D+00 0.160D+01
 Coeff:     -0.503D-05-0.197D-04 0.562D-03 0.199D-02-0.830D-02-0.249D-01
 Coeff:      0.105D+00 0.429D-01-0.320D+00-0.401D+00 0.160D+01
 Gap=     0.193 Goal=   None    Shift=    0.000
 Gap=     0.193 Goal=   None    Shift=    0.000
 RMSDP=3.26D-07 MaxDP=5.75D-06 DE=-7.00D-10 OVMax= 1.33D-05

 Cycle  12  Pass 1  IDiag  1:
 E= -193.753486775187     Delta-E=       -0.000000000178 Rises=F Damp=F
 DIIS: error= 2.48D-07 at cycle  12 NSaved=  12.
 NSaved=12 IEnMin=12 EnMin= -193.753486775187     IErMin=12 ErrMin= 2.48D-07
 ErrMax= 2.48D-07  0.00D+00 EMaxC= 1.00D-01 BMatC= 5.35D-12 BMatP= 9.94D-11
 IDIUse=1 WtCom= 1.00D+00 WtEn= 0.00D+00
 Coeff-Com:  0.117D-05 0.177D-05-0.787D-04-0.269D-03 0.121D-02 0.354D-02
 Coeff-Com: -0.173D-01-0.671D-02 0.767D-01 0.299D-01-0.444D+00 0.136D+01
 Coeff:      0.117D-05 0.177D-05-0.787D-04-0.269D-03 0.121D-02 0.354D-02
 Coeff:     -0.173D-01-0.671D-02 0.767D-01 0.299D-01-0.444D+00 0.136D+01
 Gap=     0.193 Goal=   None    Shift=    0.000
 Gap=     0.193 Goal=   None    Shift=    0.000
 RMSDP=7.18D-08 MaxDP=8.71D-07 DE=-1.78D-10 OVMax= 2.70D-06

 Cycle  13  Pass 1  IDiag  1:
 E= -193.753486775198     Delta-E=       -0.000000000011 Rises=F Damp=F
 DIIS: error= 4.59D-08 at cycle  13 NSaved=  13.
 NSaved=13 IEnMin=13 EnMin= -193.753486775198     IErMin=13 ErrMin= 4.59D-08
 ErrMax= 4.59D-08  0.00D+00 EMaxC= 1.00D-01 BMatC= 5.76D-13 BMatP= 5.35D-12
 IDIUse=1 WtCom= 1.00D+00 WtEn= 0.00D+00
 Coeff-Com:  0.142D-06 0.762D-06-0.202D-04-0.820D-04 0.307D-03 0.981D-03
 Coeff-Com: -0.304D-02-0.318D-02 0.641D-02 0.208D-01-0.472D-02-0.350D+00
 Coeff-Com:  0.133D+01
 Coeff:      0.142D-06 0.762D-06-0.202D-04-0.820D-04 0.307D-03 0.981D-03
 Coeff:     -0.304D-02-0.318D-02 0.641D-02 0.208D-01-0.472D-02-0.350D+00
 Coeff:      0.133D+01
 Gap=     0.193 Goal=   None    Shift=    0.000
 Gap=     0.193 Goal=   None    Shift=    0.000
 RMSDP=2.01D-08 MaxDP=2.35D-07 DE=-1.11D-11 OVMax= 6.17D-07

 Cycle  14  Pass 1  IDiag  1:
 E= -193.753486775196     Delta-E=        0.000000000002 Rises=F Damp=F
 DIIS: error= 2.47D-08 at cycle  14 NSaved=  14.
 NSaved=14 IEnMin=13 EnMin= -193.753486775198     IErMin=14 ErrMin= 2.47D-08
 ErrMax= 2.47D-08  0.00D+00 EMaxC= 1.00D-01 BMatC= 1.81D-13 BMatP= 5.76D-13
 IDIUse=1 WtCom= 1.00D+00 WtEn= 0.00D+00
 Coeff-Com: -0.148D-06-0.407D-06 0.135D-04 0.502D-04-0.201D-03-0.648D-03
 Coeff-Com:  0.271D-02 0.263D-03-0.569D-02-0.124D-01 0.338D-01 0.474D-01
 Coeff-Com: -0.543D+00 0.148D+01
 Coeff:     -0.148D-06-0.407D-06 0.135D-04 0.502D-04-0.201D-03-0.648D-03
 Coeff:      0.271D-02 0.263D-03-0.569D-02-0.124D-01 0.338D-01 0.474D-01
 Coeff:     -0.543D+00 0.148D+01
 Gap=     0.193 Goal=   None    Shift=    0.000
 Gap=     0.193 Goal=   None    Shift=    0.000
 RMSDP=7.78D-09 MaxDP=1.12D-07 DE= 1.71D-12 OVMax= 3.43D-07

 SCF Done:  E(UHF) =  -193.753486775     A.U. after   14 cycles
            NFock= 14  Conv=0.78D-08     -V/T= 2.0018
 <Sx>= 0.0000 <Sy>= 0.0000 <Sz>= 0.0000 <S**2>=-0.0000 S=-0.0000
 <L.S>= 0.000000000000E+00
 KE= 1.934085142204D+02 PE=-7.882699812514D+02 EE= 2.323479269324D+02
 Annihilation of the first spin contaminant:
 S**2 before annihilation    -0.0000,   after     0.0000
 Leave Link  502 at Wed Jun  2 22:12:47 2021, MaxMem=  1073741824 cpu:               2.0 elap:               0.5
 (Enter /Applications/g16/l601.exe)
 Copying SCF densities to generalized density rwf, IOpCl= 1 IROHF=0.

 **********************************************************************

            Population analysis using the SCF Density.

 **********************************************************************

 Orbital symmetries:
 Alpha Orbitals:
       Occupied  (A) (A) (A) (A) (A) (A) (A) (A) (A) (A) (A) (A)
                 (A) (A) (A) (A) (A) (A) (A)
       Virtual   (A) (A) (A) (A) (A) (A) (A) (A) (A) (A) (A) (A)
                 (A) (A) (A) (A) (A) (A) (A) (A) (A) (A) (A) (A)
                 (A) (A) (A) (A) (A) (A) (A) (A) (A) (A) (A) (A)
                 (A) (A) (A) (A) (A) (A) (A) (A) (A) (A) (A) (A)
                 (A) (A) (A) (A) (A) (A) (A) (A) (A) (A) (A) (A)
                 (A) (A) (A) (A) (A) (A) (A) (A) (A) (A) (A) (A)
 Beta  Orbitals:
       Occupied  (A) (A) (A) (A) (A) (A) (A) (A) (A) (A) (A) (A)
                 (A) (A) (A) (A) (A) (A) (A)
       Virtual   (A) (A) (A) (A) (A) (A) (A) (A) (A) (A) (A) (A)
                 (A) (A) (A) (A) (A) (A) (A) (A) (A) (A) (A) (A)
                 (A) (A) (A) (A) (A) (A) (A) (A) (A) (A) (A) (A)
                 (A) (A) (A) (A) (A) (A) (A) (A) (A) (A) (A) (A)
                 (A) (A) (A) (A) (A) (A) (A) (A) (A) (A) (A) (A)
                 (A) (A) (A) (A) (A) (A) (A) (A) (A) (A) (A) (A)
 The electronic state is 1-A.
 Alpha  occ. eigenvalues --  -11.23857 -11.22230 -11.22229 -11.22146 -11.22100
 Alpha  occ. eigenvalues --   -1.10835  -0.96871  -0.92982  -0.75292  -0.74153
 Alpha  occ. eigenvalues --   -0.65598  -0.61343  -0.55644  -0.50367  -0.50130
 Alpha  occ. eigenvalues --   -0.49421  -0.48852  -0.47378  -0.16854
 Alpha virt. eigenvalues --    0.02441   0.24314   0.28231   0.29493   0.30635
 Alpha virt. eigenvalues --    0.31877   0.32301   0.32683   0.36107   0.38094
 Alpha virt. eigenvalues --    0.38153   0.46516   0.46757   0.58092   0.76147
 Alpha virt. eigenvalues --    0.77041   0.78412   0.81138   0.82958   0.83029
 Alpha virt. eigenvalues --    0.85867   0.89425   0.89802   0.92968   0.96262
 Alpha virt. eigenvalues --    0.97466   1.05102   1.09596   1.11882   1.12483
 Alpha virt. eigenvalues --    1.13398   1.13909   1.17004   1.18375   1.18744
 Alpha virt. eigenvalues --    1.21671   1.23133   1.23603   1.44888   1.46465
 Alpha virt. eigenvalues --    1.66337   1.68447   1.72456   1.87054   1.94091
 Alpha virt. eigenvalues --    2.04171   2.12588   2.12777   2.20255   2.20827
 Alpha virt. eigenvalues --    2.28945   2.29454   2.36880   2.37337   2.41452
 Alpha virt. eigenvalues --    2.44588   2.57105   2.64658   2.70809   2.76416
 Alpha virt. eigenvalues --    2.77387   2.80863   2.93914   2.94795   3.00391
 Alpha virt. eigenvalues --    3.06872   3.24291   4.52783   4.59816   4.68571
 Alpha virt. eigenvalues --    4.91130   4.96309
  Beta  occ. eigenvalues --  -11.23857 -11.22230 -11.22229 -11.22146 -11.22100
  Beta  occ. eigenvalues --   -1.10835  -0.96871  -0.92982  -0.75292  -0.74153
  Beta  occ. eigenvalues --   -0.65598  -0.61343  -0.55644  -0.50367  -0.50130
  Beta  occ. eigenvalues --   -0.49421  -0.48852  -0.47378  -0.16854
  Beta virt. eigenvalues --    0.02441   0.24314   0.28231   0.29493   0.30635
  Beta virt. eigenvalues --    0.31877   0.32301   0.32683   0.36107   0.38094
  Beta virt. eigenvalues --    0.38153   0.46516   0.46757   0.58092   0.76147
  Beta virt. eigenvalues --    0.77041   0.78412   0.81138   0.82958   0.83029
  Beta virt. eigenvalues --    0.85867   0.89425   0.89802   0.92968   0.96262
  Beta virt. eigenvalues --    0.97466   1.05102   1.09596   1.11882   1.12483
  Beta virt. eigenvalues --    1.13398   1.13909   1.17004   1.18375   1.18744
  Beta virt. eigenvalues --    1.21671   1.23133   1.23603   1.44888   1.46465
  Beta virt. eigenvalues --    1.66337   1.68447   1.72456   1.87054   1.94091
  Beta virt. eigenvalues --    2.04171   2.12588   2.12777   2.20255   2.20827
  Beta virt. eigenvalues --    2.28945   2.29454   2.36880   2.37337   2.41452
  Beta virt. eigenvalues --    2.44588   2.57105   2.64658   2.70809   2.76416
  Beta virt. eigenvalues --    2.77387   2.80863   2.93914   2.94795   3.00391
  Beta virt. eigenvalues --    3.06872   3.24291   4.52783   4.59816   4.68571
  Beta virt. eigenvalues --    4.91130   4.96309
          Condensed to atoms (all electrons):
               1          2          3          4          5          6
     1  C    5.065880   0.337418  -0.052316  -0.071408   0.364558   0.400130
     2  C    0.337418   5.065885   0.364557  -0.071408  -0.052316  -0.033295
     3  C   -0.052316   0.364557   5.441248   0.404151  -0.183939   0.004965
     4  C   -0.071408  -0.071408   0.404151   5.080582   0.404153   0.002579
     5  C    0.364558  -0.052316  -0.183939   0.404153   5.441251  -0.034112
     6  H    0.400130  -0.033295   0.004965   0.002579  -0.034112   0.525275
     7  H    0.382500  -0.044533   0.009727   0.004157  -0.069608  -0.035420
     8  H   -0.044531   0.382498  -0.069606   0.004157   0.009727  -0.009957
     9  H   -0.033295   0.400130  -0.034112   0.002579   0.004965   0.002572
    10  H    0.001699   0.002561  -0.014327   0.353090  -0.021457  -0.000020
    11  H    0.002561   0.001699  -0.021457   0.353092  -0.014328  -0.000207
    12  H   -0.031483   0.003501   0.003426  -0.032635   0.389016  -0.000166
    13  H    0.003501  -0.031483   0.389015  -0.032635   0.003426  -0.000049
               7          8          9         10         11         12
     1  C    0.382500  -0.044531  -0.033295   0.001699   0.002561  -0.031483
     2  C   -0.044533   0.382498   0.400130   0.002561   0.001699   0.003501
     3  C    0.009727  -0.069606  -0.034112  -0.014327  -0.021457   0.003426
     4  C    0.004157   0.004157   0.002579   0.353090   0.353092  -0.032635
     5  C   -0.069608   0.009727   0.004965  -0.021457  -0.014328   0.389016
     6  H   -0.035420  -0.009957   0.002572  -0.000020  -0.000207  -0.000166
     7  H    0.595197   0.007508  -0.009957  -0.000164   0.000078  -0.000903
     8  H    0.007508   0.595193  -0.035420   0.000078  -0.000164  -0.000201
     9  H   -0.009957  -0.035420   0.525275  -0.000207  -0.000020  -0.000049
    10  H   -0.000164   0.000078  -0.000207   0.449955  -0.016117   0.000183
    11  H    0.000078  -0.000164  -0.000020  -0.016117   0.449955  -0.000224
    12  H   -0.000903  -0.000201  -0.000049   0.000183  -0.000224   0.487091
    13  H   -0.000201  -0.000903  -0.000166  -0.000224   0.000183  -0.000059
              13
     1  C    0.003501
     2  C   -0.031483
     3  C    0.389015
     4  C   -0.032635
     5  C    0.003426
     6  H   -0.000049
     7  H   -0.000201
     8  H   -0.000903
     9  H   -0.000166
    10  H   -0.000224
    11  H    0.000183
    12  H   -0.000059
    13  H    0.487089
          Atomic-Atomic Spin Densities.
               1          2          3          4          5          6
     1  C    0.000000   0.000000   0.000000   0.000000   0.000000   0.000000
     2  C    0.000000   0.000000   0.000000   0.000000   0.000000   0.000000
     3  C    0.000000   0.000000   0.000000   0.000000   0.000000   0.000000
     4  C    0.000000   0.000000   0.000000   0.000000   0.000000   0.000000
     5  C    0.000000   0.000000   0.000000   0.000000   0.000000   0.000000
     6  H    0.000000   0.000000   0.000000   0.000000   0.000000   0.000000
     7  H    0.000000   0.000000   0.000000   0.000000   0.000000   0.000000
     8  H    0.000000   0.000000   0.000000   0.000000   0.000000   0.000000
     9  H    0.000000   0.000000   0.000000   0.000000   0.000000   0.000000
    10  H    0.000000   0.000000   0.000000   0.000000   0.000000   0.000000
    11  H    0.000000   0.000000   0.000000   0.000000   0.000000   0.000000
    12  H    0.000000   0.000000   0.000000   0.000000   0.000000   0.000000
    13  H    0.000000   0.000000   0.000000   0.000000   0.000000   0.000000
               7          8          9         10         11         12
     1  C    0.000000   0.000000   0.000000   0.000000   0.000000   0.000000
     2  C    0.000000   0.000000   0.000000   0.000000   0.000000   0.000000
     3  C    0.000000   0.000000   0.000000   0.000000   0.000000   0.000000
     4  C    0.000000   0.000000   0.000000   0.000000   0.000000   0.000000
     5  C    0.000000   0.000000   0.000000   0.000000   0.000000   0.000000
     6  H    0.000000   0.000000   0.000000   0.000000   0.000000   0.000000
     7  H    0.000000   0.000000   0.000000   0.000000   0.000000   0.000000
     8  H    0.000000   0.000000   0.000000   0.000000   0.000000   0.000000
     9  H    0.000000   0.000000   0.000000   0.000000   0.000000   0.000000
    10  H    0.000000   0.000000   0.000000   0.000000   0.000000   0.000000
    11  H    0.000000   0.000000   0.000000   0.000000   0.000000   0.000000
    12  H    0.000000   0.000000   0.000000   0.000000   0.000000   0.000000
    13  H    0.000000   0.000000   0.000000   0.000000   0.000000   0.000000
              13
     1  C    0.000000
     2  C    0.000000
     3  C    0.000000
     4  C    0.000000
     5  C    0.000000
     6  H    0.000000
     7  H    0.000000
     8  H    0.000000
     9  H    0.000000
    10  H    0.000000
    11  H    0.000000
    12  H    0.000000
    13  H    0.000000
 Mulliken charges and spin densities:
               1          2
     1  C   -0.325214   0.000000
     2  C   -0.325215   0.000000
     3  C   -0.241334   0.000000
     4  C   -0.400453   0.000000
     5  C   -0.241338   0.000000
     6  H    0.177704   0.000000
     7  H    0.161619   0.000000
     8  H    0.161620   0.000000
     9  H    0.177705   0.000000
    10  H    0.244950   0.000000
    11  H    0.244948   0.000000
    12  H    0.182503   0.000000
    13  H    0.182505   0.000000
 Sum of Mulliken charges =  -0.00000   0.00000
 Mulliken charges and spin densities with hydrogens summed into heavy atoms:
               1          2
     1  C    0.014109   0.000000
     2  C    0.014110   0.000000
     3  C   -0.058829   0.000000
     4  C    0.089445   0.000000
     5  C   -0.058835   0.000000
 Electronic spatial extent (au):  <R**2>=            385.3163
 Charge=             -0.0000 electrons
 Dipole moment (field-independent basis, Debye):
    X=             -0.6389    Y=              0.0001    Z=              0.0000  Tot=              0.6389
 Quadrupole moment (field-independent basis, Debye-Ang):
   XX=            -28.7226   YY=            -32.7149   ZZ=            -33.3632
   XY=             -0.0000   XZ=             -0.0001   YZ=             -0.1412
 Traceless Quadrupole moment (field-independent basis, Debye-Ang):
   XX=              2.8776   YY=             -1.1147   ZZ=             -1.7630
   XY=             -0.0000   XZ=             -0.0001   YZ=             -0.1412
 Octapole moment (field-independent basis, Debye-Ang**2):
  XXX=             -6.4876  YYY=              0.0002  ZZZ=              0.0001  XYY=              0.1652
  XXY=              0.0000  XXZ=              0.0000  XZZ=             -0.0404  YZZ=              0.0001
  YYZ=             -0.0000  XYZ=              0.6636
 Hexadecapole moment (field-independent basis, Debye-Ang**3):
 XXXX=           -235.6692 YYYY=           -217.0082 ZZZZ=            -57.7139 XXXY=              0.0001
 XXXZ=             -0.0001 YYYX=             -0.0001 YYYZ=              1.6686 ZZZX=             -0.0001
 ZZZY=             -1.8775 XXYY=            -79.1531 XXZZ=            -45.5381 YYZZ=            -52.1682
 XXYZ=              1.2269 YYXZ=              0.0000 ZZXY=              0.0001
 N-N= 1.687600533234D+02 E-N=-7.882699813217D+02  KE= 1.934085142204D+02
                          Isotropic Fermi Contact Couplings
        Atom                 a.u.       MegaHertz       Gauss      10(-4) cm-1
     1  C(13)              0.00000       0.00000       0.00000       0.00000
     2  C(13)              0.00000       0.00000       0.00000       0.00000
     3  C(13)              0.00000       0.00000       0.00000       0.00000
     4  C(13)              0.00000       0.00000       0.00000       0.00000
     5  C(13)              0.00000       0.00000       0.00000       0.00000
     6  H(1)               0.00000       0.00000       0.00000       0.00000
     7  H(1)               0.00000       0.00000       0.00000       0.00000
     8  H(1)               0.00000       0.00000       0.00000       0.00000
     9  H(1)               0.00000       0.00000       0.00000       0.00000
    10  H(1)               0.00000       0.00000       0.00000       0.00000
    11  H(1)               0.00000       0.00000       0.00000       0.00000
    12  H(1)               0.00000       0.00000       0.00000       0.00000
    13  H(1)               0.00000       0.00000       0.00000       0.00000
 --------------------------------------------------------
       Center         ----  Spin Dipole Couplings  ----
                      3XX-RR        3YY-RR        3ZZ-RR
 --------------------------------------------------------
     1   Atom        0.000000      0.000000      0.000000
     2   Atom        0.000000      0.000000      0.000000
     3   Atom        0.000000      0.000000      0.000000
     4   Atom        0.000000      0.000000      0.000000
     5   Atom        0.000000      0.000000      0.000000
     6   Atom        0.000000      0.000000      0.000000
     7   Atom        0.000000      0.000000      0.000000
     8   Atom        0.000000      0.000000      0.000000
     9   Atom        0.000000      0.000000      0.000000
    10   Atom        0.000000      0.000000      0.000000
    11   Atom        0.000000      0.000000      0.000000
    12   Atom        0.000000      0.000000      0.000000
    13   Atom        0.000000      0.000000      0.000000
 --------------------------------------------------------
                        XY            XZ            YZ
 --------------------------------------------------------
     1   Atom        0.000000      0.000000      0.000000
     2   Atom        0.000000      0.000000      0.000000
     3   Atom        0.000000      0.000000      0.000000
     4   Atom        0.000000      0.000000      0.000000
     5   Atom        0.000000      0.000000      0.000000
     6   Atom        0.000000      0.000000      0.000000
     7   Atom        0.000000      0.000000      0.000000
     8   Atom        0.000000      0.000000      0.000000
     9   Atom        0.000000      0.000000      0.000000
    10   Atom        0.000000      0.000000      0.000000
    11   Atom        0.000000      0.000000      0.000000
    12   Atom        0.000000      0.000000      0.000000
    13   Atom        0.000000      0.000000      0.000000
 --------------------------------------------------------


 ---------------------------------------------------------------------------------
              Anisotropic Spin Dipole Couplings in Principal Axis System
 ---------------------------------------------------------------------------------

       Atom             a.u.   MegaHertz   Gauss  10(-4) cm-1        Axes

              Baa     0.0000     0.000     0.000     0.000  1.0000  0.0000  0.0000
     1 C(13)  Bbb     0.0000     0.000     0.000     0.000 -0.0000  1.0000  0.0000
              Bcc     0.0000     0.000     0.000     0.000  0.0000  0.0000  1.0000
 
              Baa     0.0000     0.000     0.000     0.000  1.0000  0.0000  0.0000
     2 C(13)  Bbb     0.0000     0.000     0.000     0.000 -0.0000  1.0000  0.0000
              Bcc     0.0000     0.000     0.000     0.000  0.0000  0.0000  1.0000
 
              Baa     0.0000     0.000     0.000     0.000  1.0000  0.0000  0.0000
     3 C(13)  Bbb     0.0000     0.000     0.000     0.000 -0.0000  1.0000  0.0000
              Bcc     0.0000     0.000     0.000     0.000  0.0000  0.0000  1.0000
 
              Baa     0.0000     0.000     0.000     0.000  1.0000  0.0000  0.0000
     4 C(13)  Bbb     0.0000     0.000     0.000     0.000 -0.0000  1.0000  0.0000
              Bcc     0.0000     0.000     0.000     0.000  0.0000  0.0000  1.0000
 
              Baa     0.0000     0.000     0.000     0.000  1.0000  0.0000  0.0000
     5 C(13)  Bbb     0.0000     0.000     0.000     0.000 -0.0000  1.0000  0.0000
              Bcc     0.0000     0.000     0.000     0.000  0.0000  0.0000  1.0000
 
              Baa     0.0000     0.000     0.000     0.000  1.0000  0.0000  0.0000
     6 H(1)   Bbb     0.0000     0.000     0.000     0.000 -0.0000  1.0000  0.0000
              Bcc     0.0000     0.000     0.000     0.000  0.0000  0.0000  1.0000
 
              Baa     0.0000     0.000     0.000     0.000  1.0000  0.0000  0.0000
     7 H(1)   Bbb     0.0000     0.000     0.000     0.000 -0.0000  1.0000  0.0000
              Bcc     0.0000     0.000     0.000     0.000  0.0000  0.0000  1.0000
 
              Baa     0.0000     0.000     0.000     0.000  1.0000  0.0000  0.0000
     8 H(1)   Bbb     0.0000     0.000     0.000     0.000 -0.0000  1.0000  0.0000
              Bcc     0.0000     0.000     0.000     0.000  0.0000  0.0000  1.0000
 
              Baa     0.0000     0.000     0.000     0.000  1.0000  0.0000  0.0000
     9 H(1)   Bbb     0.0000     0.000     0.000     0.000 -0.0000  1.0000  0.0000
              Bcc     0.0000     0.000     0.000     0.000  0.0000  0.0000  1.0000
 
              Baa     0.0000     0.000     0.000     0.000  1.0000  0.0000  0.0000
    10 H(1)   Bbb     0.0000     0.000     0.000     0.000 -0.0000  1.0000  0.0000
              Bcc     0.0000     0.000     0.000     0.000  0.0000  0.0000  1.0000
 
              Baa     0.0000     0.000     0.000     0.000  1.0000  0.0000  0.0000
    11 H(1)   Bbb     0.0000     0.000     0.000     0.000 -0.0000  1.0000  0.0000
              Bcc     0.0000     0.000     0.000     0.000  0.0000  0.0000  1.0000
 
              Baa     0.0000     0.000     0.000     0.000  1.0000  0.0000  0.0000
    12 H(1)   Bbb     0.0000     0.000     0.000     0.000 -0.0000  1.0000  0.0000
              Bcc     0.0000     0.000     0.000     0.000  0.0000  0.0000  1.0000
 
              Baa     0.0000     0.000     0.000     0.000  1.0000  0.0000  0.0000
    13 H(1)   Bbb     0.0000     0.000     0.000     0.000 -0.0000  1.0000  0.0000
              Bcc     0.0000     0.000     0.000     0.000  0.0000  0.0000  1.0000
 

 ---------------------------------------------------------------------------------

 No NMR shielding tensors so no spin-rotation constants.
 Leave Link  601 at Wed Jun  2 22:12:47 2021, MaxMem=  1073741824 cpu:               0.5 elap:               0.1
 (Enter /Applications/g16/l9999.exe)
 1\1\GINC-MAC-MINI\SP\UHF\6-31G(d)\C5H8\TETSU\02-Jun-2021\0\\#p uhf/6-3
 1g(d)\\Title Card Required\\0,1\C,0,1.024872,0.772022,-0.091024\C,0,1.
 024868,-0.772027,0.091022\C,0,-0.408439,-1.174719,-0.078831\C,0,-1.343
 203,0.000004,-0.000004\C,0,-0.40843,1.174721,0.078841\H,0,1.697516,1.2
 78691,0.615685\H,0,1.398694,1.037633,-1.096417\H,0,1.3987,-1.037644,1.
 096409\H,0,1.697501,-1.278699,-0.615696\H,0,-2.022861,0.053956,-0.8731
 23\H,0,-2.022885,-0.053944,0.873094\H,0,-0.742327,2.206653,0.11941\H,0
 ,-0.742342,-2.20665,-0.119391\\Version=EM64M-G16RevB.01\State=1-A\HF=-
 193.7534868\S2=0.\S2-1=0.\S2A=0.\RMSD=7.785e-09\Dipole=-0.2513699,-0.0
 0002,-0.0000116\Quadrupole=2.1394477,-0.8287306,-1.3107172,0.0000035,0
 .0000386,-0.1049763\PG=C01 [X(C5H8)]\\@


 ORIGINALITY CONSISTS NOT IN SAYING WHAT NO ONE HAS EVER SAID BEFORE, 
 BUT IN SAYING WHAT YOU THINK YOUR SELF.

                                    -- JAMES F. STEPHEN
 Job cpu time:       0 days  0 hours  0 minutes  7.7 seconds.
 Elapsed time:       0 days  0 hours  0 minutes  1.6 seconds.
 File lengths (MBytes):  RWF=     10 Int=      0 D2E=      0 Chk=      2 Scr=      1
 Normal termination of Gaussian 16 at Wed Jun  2 22:12:47 2021.
 Initial command:
 /Applications/g16/l1.exe "/Applications/g16/Scratch/Gau-20444.inp" -scrdir="/Applications/g16/Scratch/"
 Entering Link 1 = /Applications/g16/l1.exe PID=     20447.
  
 Copyright (c) 1988-2017, Gaussian, Inc.  All Rights Reserved.
  
 This is part of the Gaussian(R) 16 program.  It is based on
 the Gaussian(R) 09 system (copyright 2009, Gaussian, Inc.),
 the Gaussian(R) 03 system (copyright 2003, Gaussian, Inc.),
 the Gaussian(R) 98 system (copyright 1998, Gaussian, Inc.),
 the Gaussian(R) 94 system (copyright 1995, Gaussian, Inc.),
 the Gaussian 92(TM) system (copyright 1992, Gaussian, Inc.),
 the Gaussian 90(TM) system (copyright 1990, Gaussian, Inc.),
 the Gaussian 88(TM) system (copyright 1988, Gaussian, Inc.),
 the Gaussian 86(TM) system (copyright 1986, Carnegie Mellon
 University), and the Gaussian 82(TM) system (copyright 1983,
 Carnegie Mellon University). Gaussian is a federally registered
 trademark of Gaussian, Inc.
  
 This software contains proprietary and confidential information,
 including trade secrets, belonging to Gaussian, Inc.
  
 This software is provided under written license and may be
 used, copied, transmitted, or stored only in accord with that
 written license.
  
 The following legend is applicable only to US Government
 contracts under FAR:
  
                    RESTRICTED RIGHTS LEGEND
  
 Use, reproduction and disclosure by the US Government is
 subject to restrictions as set forth in subparagraphs (a)
 and (c) of the Commercial Computer Software - Restricted
 Rights clause in FAR 52.227-19.
  
 Gaussian, Inc.
 340 Quinnipiac St., Bldg. 40, Wallingford CT 06492
  
  
 ---------------------------------------------------------------
 Warning -- This program may not be used in any manner that
 competes with the business of Gaussian, Inc. or will provide
 assistance to any competitor of Gaussian, Inc.  The licensee
 of this program is prohibited from giving any competitor of
 Gaussian, Inc. access to this program.  By using this program,
 the user acknowledges that Gaussian, Inc. is engaged in the
 business of creating and licensing software in the field of
 computational chemistry and represents and warrants to the
 licensee that it is not a competitor of Gaussian, Inc. and that
 it will not use this program in any manner prohibited above.
 ---------------------------------------------------------------
  

 Cite this work as:
 Gaussian 16, Revision B.01,
 M. J. Frisch, G. W. Trucks, H. B. Schlegel, G. E. Scuseria, 
 M. A. Robb, J. R. Cheeseman, G. Scalmani, V. Barone, 
 G. A. Petersson, H. Nakatsuji, X. Li, M. Caricato, A. V. Marenich, 
 J. Bloino, B. G. Janesko, R. Gomperts, B. Mennucci, H. P. Hratchian, 
 J. V. Ortiz, A. F. Izmaylov, J. L. Sonnenberg, D. Williams-Young, 
 F. Ding, F. Lipparini, F. Egidi, J. Goings, B. Peng, A. Petrone, 
 T. Henderson, D. Ranasinghe, V. G. Zakrzewski, J. Gao, N. Rega, 
 G. Zheng, W. Liang, M. Hada, M. Ehara, K. Toyota, R. Fukuda, 
 J. Hasegawa, M. Ishida, T. Nakajima, Y. Honda, O. Kitao, H. Nakai, 
 T. Vreven, K. Throssell, J. A. Montgomery, Jr., J. E. Peralta, 
 F. Ogliaro, M. J. Bearpark, J. J. Heyd, E. N. Brothers, K. N. Kudin, 
 V. N. Staroverov, T. A. Keith, R. Kobayashi, J. Normand, 
 K. Raghavachari, A. P. Rendell, J. C. Burant, S. S. Iyengar, 
 J. Tomasi, M. Cossi, J. M. Millam, M. Klene, C. Adamo, R. Cammi, 
 J. W. Ochterski, R. L. Martin, K. Morokuma, O. Farkas, 
 J. B. Foresman, and D. J. Fox, Gaussian, Inc., Wallingford CT, 2016.
 
 ******************************************
 Gaussian 16:  EM64M-G16RevB.01 20-Dec-2017
                 2-Jun-2021 
 ******************************************
 %nprocshared=6
 Will use up to    6 processors via shared memory.
 %mem=8GB
 %oldchk=drch_2_1.chk
 %chk=drch_2_2.chk
 Copying data from "drch_2_1.chk" to current chk file "drch_2_2.chk"
 IOpt=  2 FromEx=T IUOpen= 4 IOptOp= 5 NList=   0 IFRang= 0 IUIn= 4 IUOut= 2.
 -------------------------------------------------------
 #p casscf(2,2)/6-31g(d) guess=read pop=no geom=allcheck
 -------------------------------------------------------
 1/29=7,38=1,172=1/1;
 2/12=2,40=1/2;
 3/5=1,6=6,7=1,14=-4,25=1,116=101/1,2,3;
 4/5=1,17=2,18=2,43=1/1,5;
 5/5=2,17=1000000,38=6/10;
 6/7=2,8=2,9=2,10=2,22=-1,28=1,31=1/1;
 99/5=1,9=1/99;
 Leave Link    1 at Wed Jun  2 22:12:47 2021, MaxMem=  1073741824 cpu:               0.1 elap:               0.0
 (Enter /Applications/g16/l101.exe)
 Structure from the checkpoint file:  "drch_2_2.chk"
 -------------------
 Title Card Required
 -------------------
 Charge =  0 Multiplicity = 1
 Z-Matrix found in chk file.
 C,0,1.024872,0.772022,-0.091024
 C,0,1.024868,-0.772027,0.091022
 C,0,-0.408439,-1.174719,-0.078831
 C,0,-1.343203,0.000004,-0.000004
 C,0,-0.40843,1.174721,0.078841
 H,0,1.697516,1.278691,0.615685
 H,0,1.398694,1.037633,-1.096417
 H,0,1.3987,-1.037644,1.096409
 H,0,1.697501,-1.278699,-0.615696
 H,0,-2.022861,0.053956,-0.873123
 H,0,-2.022885,-0.053944,0.873094
 H,0,-0.742327,2.206653,0.11941
 H,0,-0.742342,-2.20665,-0.119391
 Recover connectivity data from disk.
 ITRead=  0  0  0  0  0  0  0  0  0  0  0  0  0
 MicOpt= -1 -1 -1 -1 -1 -1 -1 -1 -1 -1 -1 -1 -1
 NAtoms=     13 NQM=       13 NQMF=       0 NMMI=      0 NMMIF=      0
                NMic=       0 NMicF=      0.
                    Isotopes and Nuclear Properties:
 (Nuclear quadrupole moments (NQMom) in fm**2, nuclear magnetic moments (NMagM)
  in nuclear magnetons)

  Atom         1           2           3           4           5           6           7           8           9          10
 IAtWgt=          12          12          12          12          12           1           1           1           1           1
 AtmWgt=  12.0000000  12.0000000  12.0000000  12.0000000  12.0000000   1.0078250   1.0078250   1.0078250   1.0078250   1.0078250
 NucSpn=           0           0           0           0           0           1           1           1           1           1
 AtZEff=   3.6000000   3.6000000   3.6000000   3.6000000   3.6000000   1.0000000   1.0000000   1.0000000   1.0000000   1.0000000
 NQMom=    0.0000000   0.0000000   0.0000000   0.0000000   0.0000000   0.0000000   0.0000000   0.0000000   0.0000000   0.0000000
 NMagM=    0.0000000   0.0000000   0.0000000   0.0000000   0.0000000   2.7928460   2.7928460   2.7928460   2.7928460   2.7928460
 AtZNuc=   6.0000000   6.0000000   6.0000000   6.0000000   6.0000000   1.0000000   1.0000000   1.0000000   1.0000000   1.0000000

  Atom        11          12          13
 IAtWgt=           1           1           1
 AtmWgt=   1.0078250   1.0078250   1.0078250
 NucSpn=           1           1           1
 AtZEff=   1.0000000   1.0000000   1.0000000
 NQMom=    0.0000000   0.0000000   0.0000000
 NMagM=    2.7928460   2.7928460   2.7928460
 AtZNuc=   1.0000000   1.0000000   1.0000000
 Leave Link  101 at Wed Jun  2 22:12:47 2021, MaxMem=  1073741824 cpu:               0.7 elap:               0.1
 (Enter /Applications/g16/l202.exe)
                          Input orientation:                          
 ---------------------------------------------------------------------
 Center     Atomic      Atomic             Coordinates (Angstroms)
 Number     Number       Type             X           Y           Z
 ---------------------------------------------------------------------
      1          6           0        1.024872    0.772022   -0.091024
      2          6           0        1.024868   -0.772027    0.091022
      3          6           0       -0.408439   -1.174719   -0.078831
      4          6           0       -1.343203    0.000004   -0.000004
      5          6           0       -0.408430    1.174721    0.078841
      6          1           0        1.697516    1.278691    0.615685
      7          1           0        1.398694    1.037633   -1.096417
      8          1           0        1.398700   -1.037644    1.096409
      9          1           0        1.697501   -1.278699   -0.615696
     10          1           0       -2.022861    0.053956   -0.873123
     11          1           0       -2.022885   -0.053944    0.873094
     12          1           0       -0.742327    2.206653    0.119410
     13          1           0       -0.742342   -2.206650   -0.119391
 ---------------------------------------------------------------------
                    Distance matrix (angstroms):
                    1          2          3          4          5
     1  C    0.000000
     2  C    1.554744   0.000000
     3  C    2.417505   1.498459   0.000000
     4  C    2.492404   2.492404   1.503320   0.000000
     5  C    1.498458   2.417503   2.354725   1.503322   0.000000
     6  H    1.099364   2.221074   3.307056   3.355605   2.175780
     7  H    1.105037   2.196503   3.032443   3.129983   2.160028
     8  H    2.196505   1.105037   2.160030   3.129995   3.032445
     9  H    2.221073   1.099364   2.175780   3.355598   3.307053
    10  H    3.227379   3.301587   2.178738   1.107783   2.183744
    11  H    3.301601   3.227395   2.183743   1.107781   2.178743
    12  H    2.285922   3.463570   3.403595   2.290112   1.085365
    13  H    3.463573   2.285924   1.085365   2.290111   3.403596
                    6          7          8          9         10
     6  H    0.000000
     7  H    1.754622   0.000000
     8  H    2.384490   3.019149   0.000000
     9  H    2.838405   2.384486   1.754620   0.000000
    10  H    4.190195   3.567144   4.096062   3.960219   0.000000
    11  H    3.960247   4.096061   3.567181   4.190202   1.749547
    12  H    2.657111   2.725585   4.007990   4.317502   2.694252
    13  H    4.317505   4.007990   2.725584   2.657112   2.705214
                   11         12         13
    11  H    0.000000
    12  H    2.705211   0.000000
    13  H    2.694246   4.419759   0.000000
 Stoichiometry    C5H8
 Framework group  C1[X(C5H8)]
 Deg. of freedom    33
 Full point group                 C1      NOp   1
 RotChk:  IX=0 Diff= 3.36D-15
 Largest Abelian subgroup         C1      NOp   1
 Largest concise Abelian subgroup C1      NOp   1
                         Standard orientation:                         
 ---------------------------------------------------------------------
 Center     Atomic      Atomic             Coordinates (Angstroms)
 Number     Number       Type             X           Y           Z
 ---------------------------------------------------------------------
      1          6           0        1.024873   -0.772021    0.091024
      2          6           0        1.024867    0.772028   -0.091022
      3          6           0       -0.408440    1.174719    0.078831
      4          6           0       -1.343203   -0.000005    0.000004
      5          6           0       -0.408429   -1.174721   -0.078841
      6          1           0        1.697517   -1.278689   -0.615685
      7          1           0        1.398695   -1.037631    1.096417
      8          1           0        1.398699    1.037646   -1.096409
      9          1           0        1.697500    1.278701    0.615696
     10          1           0       -2.022861   -0.053958    0.873123
     11          1           0       -2.022885    0.053942   -0.873094
     12          1           0       -0.742325   -2.206654   -0.119410
     13          1           0       -0.742344    2.206649    0.119391
 ---------------------------------------------------------------------
 Rotational constants (GHZ):           7.4527778           6.7324824           3.8090596
 Leave Link  202 at Wed Jun  2 22:12:47 2021, MaxMem=  1073741824 cpu:               0.0 elap:               0.0
 (Enter /Applications/g16/l301.exe)
 Standard basis: 6-31G(d) (6D, 7F)
 Ernie: Thresh=  0.10000D-02 Tol=  0.10000D-05 Strict=F.
 There are    91 symmetry adapted cartesian basis functions of A   symmetry.
 There are    91 symmetry adapted basis functions of A   symmetry.
    91 basis functions,   172 primitive gaussians,    91 cartesian basis functions
    19 alpha electrons       19 beta electrons
       nuclear repulsion energy       168.7600533234 Hartrees.
 IExCor=    0 DFT=F Ex=HF Corr=None ExCW=0 ScaHFX=  1.000000
 ScaDFX=  1.000000  1.000000  1.000000  1.000000 ScalE2=  1.000000  1.000000
 IRadAn=      5 IRanWt=     -1 IRanGd=            0 ICorTp=0 IEmpDi=  4
 NAtoms=   13 NActive=   13 NUniq=   13 SFac= 1.00D+00 NAtFMM=   60 NAOKFM=F Big=F
 Integral buffers will be    131072 words long.
 Regular integral format.
 Two-electron integral symmetry is turned off.
 Leave Link  301 at Wed Jun  2 22:12:47 2021, MaxMem=  1073741824 cpu:               0.2 elap:               0.0
 (Enter /Applications/g16/l302.exe)
 NPDir=0 NMtPBC=     1 NCelOv=     1 NCel=       1 NClECP=     1 NCelD=      1
         NCelK=      1 NCelE2=     1 NClLst=     1 CellRange=     0.0.
 One-electron integrals computed using PRISM.
 NBasis=    91 RedAO= T EigKep=  3.84D-03  NBF=    91
 NBsUse=    91 1.00D-06 EigRej= -1.00D+00 NBFU=    91
 Leave Link  302 at Wed Jun  2 22:12:48 2021, MaxMem=  1073741824 cpu:               0.5 elap:               0.1
 (Enter /Applications/g16/l303.exe)
 DipDrv:  MaxL=1.
 Leave Link  303 at Wed Jun  2 22:12:48 2021, MaxMem=  1073741824 cpu:               0.3 elap:               0.1
 (Enter /Applications/g16/l401.exe)
 Initial guess from the checkpoint file:  "drch_2_2.chk"
 B after Tr=    -0.000000   -0.000000   -0.000000
         Rot=    1.000000    0.000000    0.000000   -0.000000 Ang=   0.00 deg.
 Guess basis will be translated and rotated to current coordinates.
 BiOrM2:  NumA=      19 NumB=      19.
 Eigenvalues of SAB:
  1.00000000  1.00000000  1.00000000  1.00000000  1.00000000
  1.00000000  1.00000000  1.00000000  1.00000000  1.00000000
  1.00000000  1.00000000  1.00000000  1.00000000  1.00000000
  1.00000000  1.00000000  1.00000000  1.00000000
 BiOrM2:  NumA=      72 NumB=      72.
 Eigenvalues of SAB:
  1.00000000  1.00000000  1.00000000  1.00000000  1.00000000
  1.00000000  1.00000000  1.00000000  1.00000000  1.00000000
  1.00000000  1.00000000  1.00000000  1.00000000  1.00000000
  1.00000000  1.00000000  1.00000000  1.00000000  1.00000000
  1.00000000  1.00000000  1.00000000  1.00000000  1.00000000
  1.00000000  1.00000000  1.00000000  1.00000000  1.00000000
  1.00000000  1.00000000  1.00000000  1.00000000  1.00000000
  1.00000000  1.00000000  1.00000000  1.00000000  1.00000000
  1.00000000  1.00000000  1.00000000  1.00000000  1.00000000
  1.00000000  1.00000000  1.00000000  1.00000000  1.00000000
  1.00000000  1.00000000  1.00000000  1.00000000  1.00000000
  1.00000000  1.00000000  1.00000000  1.00000000  1.00000000
  1.00000000  1.00000000  1.00000000  1.00000000  1.00000000
  1.00000000  1.00000000  1.00000000  1.00000000  1.00000000
  1.00000000  1.00000000
 JPrj=2 DoOrth=T DoCkMO=T.
 Leave Link  401 at Wed Jun  2 22:12:48 2021, MaxMem=  1073741824 cpu:               0.4 elap:               0.1
 (Enter /Applications/g16/l405.exe)
          Truncation Level=               99999
          a=  1          b=  0          c=  1
          a=N/2 - s   b=2s   c=n- (a+b)
          no. active orbitals (n)  2
          no. active ELECTRONS (N)=  2
                                                  IRREPS TO BE RETAINED = 1
                                                  GROUP IRREP. MULT. TABLE
                                                      1
                                                  IRREP. LABELS FOR ORBITALS
                                                   1 1
          BOTTOM WEIGHT=  2     TOP WEIGHT=  4
          Configuration         1 Symmetry 1 10
          Configuration         2 Symmetry 1 ab
          Configuration         3 Symmetry 1 01
          NO OF BASIS FUNCTIONS =         3 NO TO BE DELETED =    0
 CI Matrix Elements calculated here
          NO. OF CONFIGURATIONS IN REFERENCE SPACE =    1
                                   SECONDARY SPACE =    3
                                   TERTIARY SPACE =    3
          NO. OF ORBITALS =    2
          NO. OF ELECTRONS =    2
          NO. OF WEIGHTS =    3
          REFERENCE STATE CONFIGURATIONS ARE:     0
          NO. OF CORE ORBITALS =    0
          OPTION:  NON-DIAGONAL HOLE LINE INTERACTIONS INCLUDED
 Len28=          98 LenMCI=         101.
 Leave Link  405 at Wed Jun  2 22:12:51 2021, MaxMem=  1073741824 cpu:              11.4 elap:               3.1
 (Enter /Applications/g16/l510.exe)
 Enter MCSCF program.
 NBasis=   91 NCore=   18 NVal=    2 NVirt=   71 IFrame=0 Acc=  1.00D-08.
  Memory needed for Incore Integrals:                 9583938
  Integrals KEPT IN MEMORY
 IBUJAK length=                   33488
 Integral file not found: evaluate integrals 
 FoFCou: FMM=F IPFlag=           0 FMFlag=           0 FMFlg1=           0
         NFxFlg=           0 DoJE=F BraDBF=F KetDBF=F FulRan=T
         wScrn=  0.000000 ICntrl=       600 IOpCl=  0 I1Cent=           0 NGrid=           0
         NMat0=    1 NMatS0=      1 NMatT0=    0 NMatD0=    1 NMtDS0=    0 NMtDT0=    0
 Symmetry not used in FoFCou.
 Defining IBUGAM
 2ND ORD PT ENERGY     CV   -0.000013   CU   -0.000000   UV   -0.000011
 TOTAL                    -193.753513
 ITN=  1 MaxIt= 64 E=   -193.7534891336 DE=-1.94D+02 Acc= 1.00D-08 Lan=  0
 ITN=  2 MaxIt= 64 E=   -193.7534891336 DE=-5.74D-12 Acc= 1.00D-08 Lan=  0
 ... Do an extra-iteration for final printing.


                    EIGENVALUES AND  EIGENVECTORS OF CI MATRIX



   ( 1)     EIGENVALUE   -193.7534891    
 (    1) 0.9999999 (    3)-0.0004006 (    2) 0.0000001 (
 Final one electron symbolic density matrix:
                1             2 
      1  0.200000D+01
      2  0.158849D-06  0.321024D-06
 MCSCF converged.
 Leave Link  510 at Wed Jun  2 22:12:54 2021, MaxMem=  1073741824 cpu:              14.7 elap:               3.1
 (Enter /Applications/g16/l601.exe)
 Copying SCF densities to generalized density rwf, IOpCl= 0 IROHF=3.

 **********************************************************************

            Population analysis using the SCF Density.

 **********************************************************************

 Orbital symmetries:
       Occupied  (A) (A) (A) (A) (A) (A) (A) (A) (A) (A) (A) (A)
                 (A) (A) (A) (A) (A) (A) (A)
       Virtual   (A) (A) (A) (A) (A) (A) (A) (A) (A) (A) (A) (A)
                 (A) (A) (A) (A) (A) (A) (A) (A) (A) (A) (A) (A)
                 (A) (A) (A) (A) (A) (A) (A) (A) (A) (A) (A) (A)
                 (A) (A) (A) (A) (A) (A) (A) (A) (A) (A) (A) (A)
                 (A) (A) (A) (A) (A) (A) (A) (A) (A) (A) (A) (A)
                 (A) (A) (A) (A) (A) (A) (A) (A) (A) (A) (A) (A)
 The electronic state is 1-A.
     Natural Orbital Coefficients:
                           1         2         3         4         5
     Eigenvalues --     2.00000   2.00000   2.00000   2.00000   2.00000
   1 1   C  1S         -0.07215   0.03593  -0.06722  -0.15242  -0.05257
   2        2S          0.02027  -0.09152   0.03809  -0.01266  -0.06241
   3        2PX        -0.08633  -0.11185  -0.07468  -0.07408  -0.16620
   4        2PY        -0.01164  -0.09271   0.10773   0.04758   0.05599
   5        2PZ        -0.18858  -0.13354  -0.21239   0.11177   0.09513
   6        3S          0.01134  -0.07094   0.02844   0.00919  -0.06266
   7        3PX        -0.04193  -0.03971  -0.04987  -0.04083  -0.10387
   8        3PY        -0.00375  -0.03736   0.05906   0.03683   0.02805
   9        3PZ        -0.10562  -0.08188  -0.10332   0.06657   0.07692
  10        4XX         0.00788   0.01033   0.00300  -0.00199  -0.00144
  11        4YY         0.00308  -0.00808   0.00948  -0.00041  -0.00310
  12        4ZZ        -0.01049  -0.01107  -0.01231   0.00062  -0.00233
  13        4XY         0.00461   0.00192   0.00034   0.00448   0.00643
  14        4XZ        -0.01108  -0.00788   0.00218   0.00744   0.01491
  15        4YZ         0.00492   0.00648   0.00821  -0.00741  -0.01151
  16 2   C  1S         -0.04943   0.56953  -0.39846  -0.39759   0.10185
  17        2S          0.01424  -0.11520   0.03660  -0.06192  -0.00668
  18        2PX         0.06373  -0.11193  -0.03584  -0.08344  -0.01226
  19        2PY        -0.01530   0.06619  -0.12000  -0.05827  -0.03492
  20        2PZ        -0.11957  -0.01076   0.03387  -0.03846  -0.20350
  21        3S          0.03210  -0.14519   0.04225  -0.03937   0.00112
  22        3PX         0.03008  -0.03610  -0.02884  -0.04490  -0.01718
  23        3PY        -0.00711   0.02797  -0.06401  -0.04110  -0.01585
  24        3PZ        -0.05969   0.01124   0.01718  -0.03120  -0.12978
  25        4XX        -0.00776   0.00527  -0.00191  -0.00092  -0.00833
  26        4YY         0.00270  -0.00594   0.00931   0.00252  -0.00526
  27        4ZZ         0.00707  -0.00962  -0.00418  -0.00393   0.01050
  28        4XY         0.00239  -0.00608   0.00063  -0.00596   0.00480
  29        4XZ        -0.00567   0.00218  -0.00757  -0.00531  -0.01478
  30        4YZ        -0.00073   0.00328   0.00499  -0.00638  -0.01160
  31 3   C  1S         -0.02821  -0.21941  -0.33328   0.41754  -0.02777
  32        2S         -0.04835   0.07503   0.02447   0.06396  -0.12340
  33        2PX        -0.04009   0.02513   0.02295   0.01810   0.00220
  34        2PY         0.09407   0.12705   0.01528   0.11946  -0.11894
  35        2PZ         0.04036  -0.09829   0.16029   0.00342   0.03712
  36        3S         -0.04225   0.11242   0.01768   0.06545  -0.13869
  37        3PX        -0.01391   0.01495   0.00086  -0.00777   0.00984
  38        3PY         0.03666   0.04904   0.01717   0.05779  -0.05186
  39        3PZ         0.00278  -0.11227   0.21097   0.00124   0.09716
  40        4XX        -0.00190  -0.00418   0.00003  -0.00503   0.00039
  41        4YY         0.00128   0.00824   0.00423   0.00528  -0.01059
  42        4ZZ         0.00151  -0.00292  -0.00174  -0.00240   0.00590
  43        4XY        -0.00187  -0.00811  -0.00751  -0.01224   0.00652
  44        4XZ        -0.00824   0.00088   0.00075  -0.00221  -0.00334
  45        4YZ        -0.00508   0.00243   0.00079  -0.00070   0.00049
  46 4   C  1S          0.05118   0.12059  -0.08504   0.21756   0.03853
  47        2S         -0.00118  -0.10366  -0.06896  -0.18106   0.04389
  48        2PX        -0.13796   0.03853   0.02947   0.02211  -0.05758
  49        2PY        -0.00534  -0.01260   0.00151   0.00720   0.03812
  50        2PZ         0.32046  -0.07600  -0.10193   0.03863  -0.05529
  51        3S         -0.00100  -0.13003  -0.06734  -0.20111   0.05894
  52        3PX        -0.07724   0.00879   0.02461   0.01811  -0.03288
  53        3PY        -0.00170  -0.01288   0.00236  -0.00022   0.02562
  54        3PZ         0.18130  -0.04024  -0.05462   0.02079  -0.03063
  55        4XX         0.00149  -0.00266   0.00031  -0.00636   0.00631
  56        4YY        -0.00727   0.00343  -0.00031   0.00352  -0.01148
  57        4ZZ         0.00793  -0.00658  -0.00261  -0.00720   0.00637
  58        4XY        -0.00001  -0.00159  -0.00172   0.00104  -0.00028
  59        4XZ        -0.02452   0.00446   0.00624  -0.00220   0.00385
  60        4YZ        -0.00301  -0.00632   0.01772  -0.00034   0.00565
  61 5   C  1S          0.02271   0.10873  -0.02578   0.26133   0.38754
  62        2S          0.01311   0.02875   0.06478   0.01067  -0.05255
  63        2PX         0.11272   0.07909   0.06530   0.04506   0.11450
  64        2PY        -0.02649   0.01883   0.02179  -0.07754   0.11898
  65        2PZ         0.06928   0.04551  -0.23707   0.03192  -0.07428
  66        3S          0.02539   0.05302   0.05049   0.01720  -0.07005
  67        3PX         0.05470   0.03417   0.01954   0.00194   0.06400
  68        3PY        -0.00217   0.02484  -0.00225  -0.03305   0.04598
  69        3PZ         0.05499   0.08844  -0.24516   0.01423  -0.11352
  70        4XX         0.00738   0.00238   0.00264  -0.00285   0.00222
  71        4YY        -0.00707  -0.00455   0.00209  -0.00041  -0.01152
  72        4ZZ         0.00001  -0.00167  -0.00426   0.00018   0.00284
  73        4XY         0.00541   0.00194   0.00726   0.01060  -0.00141
  74        4XZ        -0.00908  -0.00121  -0.00062   0.00268   0.00456
  75        4YZ         0.00435  -0.00131  -0.00367   0.00087  -0.00182
  76 6   H  1S          0.05610   0.01621   0.02959  -0.09716  -0.16144
  77        2S          0.03782   0.03574   0.00959  -0.07841  -0.12734
  78 7   H  1S         -0.12866  -0.13143  -0.12306   0.04327   0.01602
  79        2S         -0.11356  -0.10999  -0.06710   0.03772   0.06243
  80 8   H  1S          0.08313  -0.07209  -0.01630  -0.01625   0.13315
  81        2S          0.05108  -0.05915   0.00754   0.00206   0.14046
  82 9   H  1S         -0.02129  -0.06315  -0.02311  -0.09210  -0.11075
  83        2S         -0.01825  -0.01436  -0.02859  -0.06847  -0.08976
  84 10  H  1S          0.22365  -0.08939  -0.08266  -0.05669   0.01457
  85        2S          0.17154  -0.04741  -0.03931  -0.00427   0.01013
  86 11  H  1S         -0.11666  -0.01445   0.01958  -0.09459   0.07338
  87        2S         -0.09389   0.00870   0.03706  -0.03189   0.05439
  88 12  H  1S         -0.00714  -0.02105   0.01109   0.04105  -0.11377
  89        2S         -0.00972  -0.02083  -0.00459   0.03079  -0.07814
  90 13  H  1S          0.04324   0.10152   0.02830   0.09218  -0.11887
  91        2S          0.04180   0.06802   0.01702   0.06111  -0.07052
                           6         7         8         9        10
     Eigenvalues --     2.00000   2.00000   2.00000   2.00000   2.00000
   1 1   C  1S         -0.24388  -0.02514  -0.06645  -0.11763   0.01513
   2        2S          0.01299  -0.13908   0.00701  -0.01961   0.08926
   3        2PX         0.11906  -0.06531   0.06988  -0.07876  -0.17690
   4        2PY         0.08627   0.11206  -0.12731  -0.13856   0.03942
   5        2PZ        -0.10472   0.06845   0.07554   0.03441  -0.10642
   6        3S          0.04263  -0.14860   0.01841  -0.03116   0.07753
   7        3PX         0.07532  -0.01475   0.02828  -0.05547  -0.07245
   8        3PY         0.04307   0.04331  -0.06518  -0.07167   0.00821
   9        3PZ        -0.07114   0.01958   0.05317   0.01641  -0.07657
  10        4XX        -0.00087  -0.00292   0.00323   0.00525   0.01185
  11        4YY         0.00509   0.00755  -0.01387  -0.00534   0.00473
  12        4ZZ        -0.00282  -0.01148   0.01293   0.00187  -0.01551
  13        4XY        -0.00664   0.00508  -0.00356   0.00978   0.00566
  14        4XZ        -0.01228  -0.00396   0.00288   0.00457  -0.00851
  15        4YZ         0.00468  -0.00595  -0.00438   0.00253   0.00380
  16 2   C  1S         -0.10307  -0.38231  -0.10022  -0.10261  -0.07096
  17        2S         -0.05678   0.08276  -0.06399   0.04895   0.01883
  18        2PX         0.08747  -0.04137   0.12775   0.15205   0.07708
  19        2PY        -0.10858   0.02228   0.09724   0.18351  -0.06706
  20        2PZ         0.06325   0.05903  -0.18272   0.06771   0.09402
  21        3S         -0.04376   0.11198  -0.06690   0.05918   0.01358
  22        3PX         0.03881   0.01253   0.05586   0.08362   0.07302
  23        3PY        -0.04698   0.00009   0.05568   0.09595  -0.00905
  24        3PZ         0.05264   0.04261  -0.10881   0.03624   0.07075
  25        4XX        -0.00812   0.00989  -0.00542   0.00331   0.00028
  26        4YY         0.01190  -0.00160  -0.00843  -0.00878   0.00830
  27        4ZZ        -0.00655  -0.00337   0.01562   0.01250  -0.00651
  28        4XY        -0.00042   0.00057   0.00261   0.01146   0.01235
  29        4XZ         0.01027   0.01092  -0.00783   0.00748   0.01428
  30        4YZ         0.00311   0.00049  -0.00662   0.00767   0.00501
  31 3   C  1S          0.07763  -0.50332  -0.28831  -0.19696   0.29779
  32        2S         -0.16029   0.06995  -0.00892   0.00919  -0.02532
  33        2PX        -0.02192   0.03838  -0.11583  -0.07449  -0.11252
  34        2PY         0.08870   0.00077   0.03455  -0.01860  -0.14639
  35        2PZ        -0.08501  -0.17235   0.02166   0.03230  -0.13351
  36        3S         -0.14498   0.07288  -0.00116   0.01624  -0.04597
  37        3PX        -0.00658   0.00867  -0.06462  -0.03708  -0.05045
  38        3PY         0.04776  -0.00304   0.02889  -0.02782  -0.07551
  39        3PZ        -0.12186  -0.22595   0.04397   0.03802  -0.18111
  40        4XX        -0.00990   0.00671  -0.01091   0.00492  -0.00093
  41        4YY         0.00276   0.00437   0.01031  -0.00448  -0.00142
  42        4ZZ         0.00485  -0.00342   0.00164   0.00051  -0.00134
  43        4XY        -0.00309  -0.00281   0.00442   0.00830   0.00893
  44        4XZ         0.00418   0.00091  -0.00360   0.00349   0.00510
  45        4YZ         0.00093   0.00141  -0.00015   0.00006   0.00176
  46 4   C  1S          0.46054  -0.17729   0.02631   0.57375  -0.02113
  47        2S          0.05347   0.04870  -0.06689  -0.01720  -0.02113
  48        2PX         0.01398   0.01861   0.24820  -0.04535   0.11386
  49        2PY        -0.20499  -0.01302  -0.04603   0.16778   0.16596
  50        2PZ        -0.06344   0.02886   0.04150  -0.05562  -0.01759
  51        3S          0.04488   0.02572  -0.05747  -0.03491  -0.03756
  52        3PX         0.00803  -0.01622   0.15240  -0.01657   0.03428
  53        3PY        -0.10265  -0.01265  -0.02851   0.09540   0.09146
  54        3PZ        -0.03297   0.01432   0.02478  -0.03484  -0.01201
  55        4XX        -0.00267   0.00190  -0.00696  -0.00215   0.00190
  56        4YY         0.00062   0.00402   0.01428  -0.00242   0.00159
  57        4ZZ        -0.00106  -0.00193  -0.01521   0.00179  -0.00863
  58        4XY        -0.01467   0.00134  -0.00385   0.00757   0.00643
  59        4XZ         0.00211  -0.00142  -0.00393   0.00657   0.00325
  60        4YZ        -0.00779  -0.01671   0.00453   0.00256  -0.01175
  61 5   C  1S          0.18409   0.04619  -0.24220   0.09752  -0.20250
  62        2S         -0.01590  -0.02157  -0.02100   0.03453  -0.03126
  63        2PX        -0.15240  -0.07167  -0.03069   0.14335   0.22473
  64        2PY         0.15649   0.01141   0.16873  -0.14043   0.11212
  65        2PZ         0.06421   0.20240  -0.00257  -0.03557   0.14154
  66        3S         -0.01449  -0.00307  -0.01234   0.04970  -0.02343
  67        3PX        -0.06246  -0.01539  -0.02911   0.06312   0.09167
  68        3PY         0.08339   0.00683   0.07841  -0.06133   0.05478
  69        3PZ         0.11123   0.24086  -0.03412  -0.04151   0.18363
  70        4XX         0.00058  -0.00616   0.00029   0.00127   0.00824
  71        4YY        -0.00372   0.00431  -0.00616  -0.00023  -0.00905
  72        4ZZ         0.00010   0.00055   0.00283  -0.00058  -0.00035
  73        4XY        -0.01263  -0.00228  -0.01157   0.00855   0.00567
  74        4XZ        -0.00410  -0.00126   0.00034   0.00436   0.00009
  75        4YZ        -0.00037   0.00261   0.00072  -0.00134   0.00099
  76 6   H  1S          0.08744  -0.11853   0.03028  -0.02055   0.01087
  77        2S          0.07285  -0.05562   0.01798  -0.01925   0.00145
  78 7   H  1S         -0.05841  -0.06601   0.09765   0.01627  -0.10212
  79        2S         -0.08261  -0.07398   0.09795   0.02241  -0.14246
  80 8   H  1S         -0.07752  -0.02881   0.14082   0.04483  -0.06359
  81        2S         -0.08582  -0.08774   0.14410   0.03358  -0.09797
  82 9   H  1S          0.01804   0.06343  -0.02646   0.16522   0.08794
  83        2S          0.02736   0.03821  -0.01180   0.12335   0.08731
  84 10  H  1S         -0.02023   0.02472  -0.09986  -0.03141  -0.06408
  85        2S         -0.03046   0.00021  -0.06059  -0.01746  -0.05005
  86 11  H  1S          0.03026  -0.00354  -0.14820   0.04259  -0.03201
  87        2S          0.00753  -0.02016  -0.09825   0.04204  -0.02335
  88 12  H  1S         -0.07644  -0.00007  -0.10472   0.06521  -0.11100
  89        2S         -0.05089   0.01595  -0.08894   0.03641  -0.06280
  90 13  H  1S          0.00346   0.02675   0.04573  -0.00725  -0.07764
  91        2S          0.04317   0.01974   0.02939  -0.02188  -0.03850
                          11        12        13        14        15
     Eigenvalues --     2.00000   2.00000   2.00000   2.00000   2.00000
   1 1   C  1S          0.13876   0.29931  -0.01677  -0.23130   0.47804
   2        2S          0.14071   0.05411  -0.17830   0.03393  -0.10095
   3        2PX        -0.15585  -0.07409  -0.02793  -0.05526   0.02836
   4        2PY         0.01963   0.06686   0.02525  -0.14879   0.15826
   5        2PZ         0.04781   0.11432  -0.02823  -0.04511  -0.04709
   6        3S          0.10597   0.06872  -0.18944   0.04012  -0.11674
   7        3PX        -0.05477  -0.05839  -0.02826  -0.02430   0.00221
   8        3PY         0.00851   0.04343  -0.00203  -0.07723   0.09357
   9        3PZ         0.03553   0.06084  -0.01043  -0.02474  -0.01946
  10        4XX         0.00948  -0.00446  -0.00289   0.01104  -0.00759
  11        4YY         0.00042  -0.00038  -0.00007  -0.00856   0.00825
  12        4ZZ        -0.00280   0.00223  -0.00594   0.00213  -0.00941
  13        4XY         0.00310   0.00583  -0.00098   0.00299   0.00864
  14        4XZ         0.00444   0.00936   0.00511  -0.00316  -0.00147
  15        4YZ        -0.00697  -0.00402   0.00167   0.00261  -0.00491
  16 2   C  1S         -0.05946   0.03433   0.01837  -0.16715   0.01545
  17        2S          0.09311  -0.04068   0.09548   0.01609   0.00598
  18        2PX        -0.12413   0.09173  -0.03135   0.11059   0.20822
  19        2PY        -0.03300  -0.05288   0.12854   0.15530  -0.11250
  20        2PZ        -0.11344   0.12279   0.04222  -0.06273  -0.13993
  21        3S          0.07640  -0.03595   0.09543   0.01290   0.03907
  22        3PX        -0.05653   0.03111  -0.01579   0.06051   0.10644
  23        3PY        -0.00860  -0.02844   0.04926   0.08763  -0.07601
  24        3PZ        -0.06575   0.05770   0.01574  -0.02478  -0.07156
  25        4XX         0.00095  -0.01009   0.00833  -0.00144  -0.01340
  26        4YY         0.00497   0.01011  -0.01029  -0.00361   0.00283
  27        4ZZ        -0.00064  -0.00192   0.00531   0.01175   0.01103
  28        4XY        -0.00367   0.00253   0.00127   0.00421   0.00506
  29        4XZ        -0.00576   0.00528  -0.00408   0.00477  -0.00058
  30        4YZ        -0.00830   0.00252   0.00645   0.00250  -0.00551
  31 3   C  1S         -0.03655  -0.11838   0.30433   0.23968   0.15347
  32        2S          0.01473  -0.11250   0.11744  -0.01423  -0.00184
  33        2PX         0.14074  -0.01576   0.09544  -0.01836  -0.24435
  34        2PY         0.08296   0.23682   0.03611   0.17329   0.07314
  35        2PZ        -0.09315   0.08343   0.12979  -0.08294  -0.05240
[...]
  33        2PX        -0.13206   0.08750  -0.25849  -0.08926   0.16207
  34        2PY        -0.01348   0.05234  -0.04358  -0.00575  -0.31321
  35        2PZ        -0.07311   0.00105  -0.13152   0.17710  -0.03656
  36        3S          0.34397  -6.07424   0.08748   0.15145   1.58921
  37        3PX         0.07460   0.02505  -0.56497   0.27632   0.85375
  38        3PY        -0.26328   2.78852   0.05000   0.21941   0.89732
  39        3PZ         0.46099   0.40514   0.21773  -0.33324  -0.10204
  40        4XX        -0.13243   0.15601  -0.00473   0.33278  -0.27475
  41        4YY        -0.06703   0.21292   0.34068  -0.01920  -0.34509
  42        4ZZ        -0.29985   0.31770  -0.09834  -0.12565  -0.39834
  43        4XY         0.21068  -0.08381   0.08723  -0.02929  -0.04720
  44        4XZ        -0.00795   0.03105  -0.01090  -0.12294  -0.05233
  45        4YZ        -0.04982  -0.03662   0.00553   0.11607   0.10001
  46 4   C  1S         -0.03176  -0.27316   0.13304   0.04631  -0.06993
  47        2S          0.16222  -1.13419  -0.33527  -0.27255  -0.44641
  48        2PX         0.09765   0.01768  -0.32987  -0.16973   0.04582
  49        2PY        -0.21129   0.01332   0.11572   0.24601   0.01077
  50        2PZ         0.22069   0.05058   0.26288  -0.02555  -0.02391
  51        3S          0.49633   9.51611  -0.61225  -0.36419   2.35793
  52        3PX        -0.25175   3.22055   0.06645   0.13695  -0.46424
  53        3PY        -0.31170  -0.17161  -0.23863  -0.02374   0.09686
  54        3PZ        -0.84485  -0.11193  -0.60431   0.11935  -0.14101
  55        4XX        -0.09087  -0.16474   0.31101   0.22951   0.01016
  56        4YY        -0.08267  -0.33678  -0.14777  -0.01667  -0.12417
  57        4ZZ        -0.37695  -0.61560   0.74897   0.22187  -0.11689
  58        4XY        -0.05653   0.02827   0.23870   0.13400  -0.02434
  59        4XZ        -0.01633   0.02110  -0.06193   0.20220   0.01895
  60        4YZ        -0.14160   0.02013  -0.01255  -0.05508   0.01583
  61 5   C  1S          0.06781   0.20005   0.01248   0.02912  -0.06503
  62        2S         -0.81808   0.20902  -0.05271  -0.23145  -0.13279
  63        2PX        -0.10583   0.22484  -0.38765  -0.09257  -0.04320
  64        2PY        -0.04905   0.07448   0.53505  -0.11934  -0.04106
  65        2PZ        -0.27063  -0.03262   0.02887   0.02995   0.03387
  66        3S         -0.02011  -5.61320  -0.17075  -0.39395   0.78282
  67        3PX         1.13715   0.42270   0.19933  -0.26100   0.32220
  68        3PY         0.18828  -3.19494  -0.87535   0.63361  -0.17876
  69        3PZ         0.54226  -0.31562   0.20408  -0.27991  -0.00213
  70        4XX         0.60531   0.42478   0.32477  -0.01644  -0.19411
  71        4YY         0.00944   0.35030   0.27645   0.15992  -0.14006
  72        4ZZ         0.22666   0.61209  -0.04080   0.11353  -0.32145
  73        4XY         0.23737   0.13385  -0.26667  -0.28876  -0.20503
  74        4XZ         0.13307  -0.02130  -0.03084  -0.06058   0.01470
  75        4YZ         0.16882  -0.03144   0.06769   0.01240   0.01215
  76 6   H  1S          0.26754   0.14613  -0.24272   0.62268   0.11653
  77        2S         -0.33158   0.50707  -0.27201  -0.08584  -0.15297
  78 7   H  1S          0.11805   0.01840  -0.01407  -0.36968  -0.16375
  79        2S         -0.03420  -0.03139   0.01679   0.39736   0.53533
  80 8   H  1S         -0.12739  -0.16091   0.11892   0.18836  -0.04625
  81        2S         -0.62583  -0.18958   0.38441  -0.88281   0.88378
  82 9   H  1S          0.19841   0.00588  -0.05325  -0.63178   0.16314
  83        2S          0.12142   0.53610   0.12972  -0.15103  -0.04203
  84 10  H  1S          0.19430  -0.30325  -0.02320   0.15430   0.00144
  85        2S          0.12618  -0.25581   0.25076   0.03029  -0.64731
  86 11  H  1S          0.18808  -0.28980   0.12790  -0.06024   0.09221
  87        2S         -0.56139  -0.38180  -0.32383   0.04428  -1.13288
  88 12  H  1S          0.04948  -0.00655  -0.03046   0.16792   0.18967
  89        2S          0.38889  -0.56186  -0.31659   0.31518  -0.55794
  90 13  H  1S         -0.05685  -0.03987  -0.33236   0.02945   0.06404
  91        2S          0.36418  -0.18119   0.05133  -0.14813  -0.90473
                          86        87        88        89        90
     Eigenvalues --    -0.00000  -0.00000  -0.00000  -0.00000  -0.00000
   1 1   C  1S          0.00680  -0.12043   0.05018   0.00099   0.01627
   2        2S         -0.07826   0.22824  -0.21334   0.14808  -0.08828
   3        2PX         0.03119   0.15403  -0.04745   0.29669   0.13792
   4        2PY        -0.02263   0.14259  -0.02255  -0.08455   0.04351
   5        2PZ        -0.03262   0.08403  -0.09233   0.06202  -0.03088
   6        3S          0.08209   2.84538   0.07660   0.05758   0.87579
   7        3PX        -0.25438  -1.55845  -0.03300  -0.61859  -0.67719
   8        3PY        -0.43449   0.99371   1.07304   0.28900  -0.19796
   9        3PZ         0.36172  -0.11319   0.05800  -0.04331   0.13426
  10        4XX         0.08530  -0.42047   0.15968   0.04315   0.17978
  11        4YY        -0.18575  -0.34649   0.49557  -0.39350  -0.00650
  12        4ZZ         0.11784  -0.50541   0.27868  -0.02836   0.11995
  13        4XY        -0.06939   0.05157   0.14479   0.17467   0.02414
  14        4XZ         0.12627  -0.01674   0.14720  -0.08331   0.13640
  15        4YZ        -0.02636  -0.10658  -0.03605  -0.06450   0.03071
  16 2   C  1S         -0.04943   0.17528   0.17433   0.04151  -0.02497
  17        2S          0.25828   0.32736  -0.36231  -0.29882   1.38855
  18        2PX         0.02435  -0.01994  -0.02339   0.54007   0.25125
  19        2PY        -0.05270  -0.00045   0.23537  -0.46827   0.04360
  20        2PZ         0.00105  -0.18508   0.06411  -0.12798   0.23130
  21        3S          0.64909  -4.62881  -2.66515  -0.11103  -2.74283
  22        3PX         0.04176   1.66045  -0.55894  -0.93763   0.36964
  23        3PY        -0.02647   0.79143   0.31764   0.60271  -0.53193
  24        3PZ        -0.08532  -0.29390  -0.09504  -0.01091  -0.45030
  25        4XX        -0.30684   0.29588   0.90882  -0.00466  -0.38774
  26        4YY         0.05396   0.38139   0.13607   0.42171  -0.25651
  27        4ZZ        -0.15291   0.56853   0.41064   0.07884  -0.33274
  28        4XY        -0.10088  -0.18042  -0.08368  -0.09117  -0.00296
  29        4XZ        -0.04699   0.02847  -0.06742   0.12350  -0.09544
  30        4YZ        -0.07335   0.08060   0.11090  -0.16329  -0.03352
  31 3   C  1S         -0.07165  -0.08611  -0.04638   0.00363   0.05474
  32        2S          0.28378  -0.69202   0.26736   0.06759  -0.76198
  33        2PX         0.64180   0.12511  -0.13386   0.05565   0.03795
  34        2PY         0.50976   0.07995   0.09978  -0.00081  -0.18493
  35        2PZ        -0.03385  -0.00866   0.09256  -0.13594   0.04928
  36        3S          0.27757   4.21999  -0.02592  -0.83585   1.03701
  37        3PX        -0.74600   0.45202   0.40938  -0.21562   0.96324
  38        3PY        -0.22497  -1.48064   0.10752  -0.49403  -0.53004
  39        3PZ         0.29147  -0.34875   0.04005   0.25955  -0.38972
  40        4XX        -0.60035   0.00883  -0.49858   0.27429   0.59215
  41        4YY        -0.27052   0.09271  -0.17158   0.11956   0.29235
  42        4ZZ        -0.24881  -0.28831  -0.31596  -0.17259   0.14594
  43        4XY        -0.35116   0.02648   0.00233  -0.03556  -0.17828
  44        4XZ         0.02496  -0.11540  -0.04807   0.00725   0.04194
  45        4YZ         0.02170   0.00093   0.02827   0.03207   0.05427
  46 4   C  1S         -0.02989   0.08834  -0.16126  -0.05693  -0.07152
  47        2S          0.00393  -0.15690   0.97377   0.52045   1.22756
  48        2PX        -0.01006  -0.09733   0.15675   0.01331  -0.29874
  49        2PY         0.27488  -0.18584  -0.22968  -0.00686   0.10888
  50        2PZ        -0.02405   0.13924   0.16185   0.02142  -0.12620
  51        3S         -0.21185  -1.43981   0.86974  -0.25331  -1.07439
  52        3PX         0.05186  -0.17356  -0.31960  -0.39399   0.16511
  53        3PY         0.33842  -1.09995   1.00322   0.09060   0.24106
  54        3PZ        -0.35006  -0.45155  -0.52734   0.01391   0.86726
  55        4XX        -0.07773   0.28031  -0.56610  -0.22626  -0.45066
  56        4YY         0.03199   0.43610  -0.36079  -0.42393  -0.67033
  57        4ZZ        -0.25699   0.13943  -0.73981  -0.06707  -0.24015
  58        4XY         0.57535  -0.01992   0.02475  -0.10778   0.06096
  59        4XZ         0.20756  -0.06668   0.01317   0.03420   0.01672
  60        4YZ         0.02244   0.10977   0.04136  -0.16156   0.00869
  61 5   C  1S          0.00901   0.10425  -0.04501  -0.11583   0.22288
  62        2S          0.13699   0.49753   0.42413   0.55081  -1.29877
  63        2PX        -0.31224   0.02455   0.09203   0.03229   0.01961
  64        2PY         0.10214  -0.09880  -0.08845  -0.05023   0.22081
  65        2PZ         0.10464  -0.05053   0.04055   0.00671  -0.01162
  66        3S         -0.54781  -3.55092   0.25858   0.52054  -1.13765
  67        3PX        -0.10522  -0.16149  -0.40403  -0.45603  -0.99644
  68        3PY         0.44304  -0.49572   0.16362  -0.36785  -0.15195
  69        3PZ        -0.01427  -0.22872   0.09918  -0.07698  -0.33200
  70        4XX         0.19154   0.28005  -0.25358  -0.31418   0.83855
  71        4YY         0.09242   0.12268  -0.06112  -0.19602   1.05961
  72        4ZZ         0.05907   0.46145  -0.23511  -0.58346   0.73421
  73        4XY        -0.29680   0.02359   0.04833   0.10660  -0.07367
  74        4XZ        -0.09377  -0.06108   0.04455   0.00767   0.01125
  75        4YZ        -0.01631  -0.12550   0.08415  -0.00038  -0.12374
  76 6   H  1S          0.17582  -0.04513   0.07770  -0.02056   0.04079
  77        2S         -0.04017   0.63146   0.44100   0.57917  -0.01375
  78 7   H  1S         -0.29001   0.00972  -0.14257  -0.08805  -0.15229
  79        2S         -0.03603   0.23269   0.37548   0.41174   0.16384
  80 8   H  1S         -0.19390   0.14068   0.07106  -0.00384  -0.02834
  81        2S          0.19336  -0.29748   0.60751   0.11710   0.52647
  82 9   H  1S         -0.05038   0.15195  -0.00072   0.24272   0.17051
  83        2S          0.00988   0.26585   0.70894   0.05843   0.72057
  84 10  H  1S          0.30436  -0.03856   0.33229   0.02285   0.01344
  85        2S         -0.04208   0.61140  -0.29186  -0.34647  -0.15839
  86 11  H  1S         -0.20523  -0.01860   0.34960  -0.28356  -0.00032
  87        2S         -0.01401  -0.06855  -1.03452   0.18836   0.79532
  88 12  H  1S          0.15237  -0.09271  -0.42203  -0.37667  -0.00369
  89        2S          0.31039   0.61396   0.69069  -0.31852  -0.01681
  90 13  H  1S         -0.22041  -0.14169   0.08070  -0.14770   0.17245
  91        2S         -0.08422   0.13791  -0.17037   0.58467   0.32168
                          91
     Eigenvalues --    -0.00000
   1 1   C  1S         -0.10752
   2        2S          0.18036
   3        2PX        -0.22797
   4        2PY        -0.10041
   5        2PZ         0.06937
   6        3S          2.30980
   7        3PX        -0.01309
   8        3PY         0.61286
   9        3PZ        -0.16169
  10        4XX        -0.47596
  11        4YY        -0.19897
  12        4ZZ        -0.28553
  13        4XY        -0.15958
  14        4XZ         0.01174
  15        4YZ        -0.12802
  16 2   C  1S          0.02202
  17        2S         -0.39422
  18        2PX         0.10878
  19        2PY        -0.05472
  20        2PZ         0.08648
  21        3S         -0.70245
  22        3PX         0.31449
  23        3PY         0.60098
  24        3PZ        -0.52376
  25        4XX        -0.06163
  26        4YY         0.22168
  27        4ZZ         0.01222
  28        4XY         0.06845
  29        4XZ        -0.01430
  30        4YZ        -0.13815
  31 3   C  1S         -0.05161
  32        2S         -0.86951
  33        2PX         0.08148
  34        2PY        -0.03820
  35        2PZ         0.06265
  36        3S          2.35387
  37        3PX         0.09107
  38        3PY        -0.81520
  39        3PZ        -0.11350
  40        4XX        -0.03568
  41        4YY         0.14164
  42        4ZZ        -0.03864
  43        4XY         0.25255
  44        4XZ         0.01181
  45        4YZ         0.06462
  46 4   C  1S         -0.18564
  47        2S          1.49229
  48        2PX         0.01637
  49        2PY        -0.10915
  50        2PZ         0.05255
  51        3S         -0.00710
  52        3PX        -0.76509
  53        3PY         0.03239
  54        3PZ        -0.10545
  55        4XX        -0.71188
  56        4YY        -0.91712
  57        4ZZ        -0.79212
  58        4XY         0.02746
  59        4XZ        -0.03190
  60        4YZ         0.03142
  61 5   C  1S          0.05141
  62        2S         -0.50966
  63        2PX         0.11908
  64        2PY         0.33597
  65        2PZ        -0.14863
  66        3S          0.53770
  67        3PX        -0.94402
  68        3PY        -1.53901
  69        3PZ         0.10589
  70        4XX         0.11620
  71        4YY         0.43261
  72        4ZZ         0.30197
  73        4XY        -0.24531
  74        4XZ        -0.02759
  75        4YZ        -0.00446
  76 6   H  1S         -0.02408
  77        2S         -0.29062
  78 7   H  1S          0.03175
  79        2S         -0.32718
  80 8   H  1S          0.06522
  81        2S         -0.69071
  82 9   H  1S          0.11930
  83        2S         -0.10741
  84 10  H  1S          0.06732
  85        2S         -0.46011
  86 11  H  1S          0.02780
  87        2S         -0.48216
  88 12  H  1S         -0.07768
  89        2S         -1.47573
  90 13  H  1S          0.23226
  91        2S         -0.50252
          Condensed to atoms (all electrons):
               1          2          3          4          5          6
     1  C    5.065895   0.337414  -0.052317  -0.071405   0.364548   0.400129
     2  C    0.337414   5.065885   0.364558  -0.071409  -0.052314  -0.033295
     3  C   -0.052317   0.364558   5.441249   0.404149  -0.183937   0.004965
     4  C   -0.071405  -0.071409   0.404149   5.080586   0.404150   0.002579
     5  C    0.364548  -0.052314  -0.183937   0.404150   5.441259  -0.034111
     6  H    0.400129  -0.033295   0.004965   0.002579  -0.034111   0.525275
     7  H    0.382500  -0.044533   0.009727   0.004156  -0.069607  -0.035420
     8  H   -0.044531   0.382498  -0.069606   0.004157   0.009727  -0.009957
     9  H   -0.033296   0.400130  -0.034112   0.002579   0.004965   0.002572
    10  H    0.001699   0.002561  -0.014327   0.353090  -0.021456  -0.000020
    11  H    0.002561   0.001699  -0.021457   0.353092  -0.014328  -0.000207
    12  H   -0.031483   0.003501   0.003426  -0.032635   0.389016  -0.000166
    13  H    0.003501  -0.031482   0.389015  -0.032636   0.003426  -0.000049
               7          8          9         10         11         12
     1  C    0.382500  -0.044531  -0.033296   0.001699   0.002561  -0.031483
     2  C   -0.044533   0.382498   0.400130   0.002561   0.001699   0.003501
     3  C    0.009727  -0.069606  -0.034112  -0.014327  -0.021457   0.003426
     4  C    0.004156   0.004157   0.002579   0.353090   0.353092  -0.032635
     5  C   -0.069607   0.009727   0.004965  -0.021456  -0.014328   0.389016
     6  H   -0.035420  -0.009957   0.002572  -0.000020  -0.000207  -0.000166
     7  H    0.595197   0.007508  -0.009957  -0.000164   0.000078  -0.000903
     8  H    0.007508   0.595193  -0.035420   0.000078  -0.000164  -0.000201
     9  H   -0.009957  -0.035420   0.525275  -0.000207  -0.000020  -0.000049
    10  H   -0.000164   0.000078  -0.000207   0.449955  -0.016117   0.000183
    11  H    0.000078  -0.000164  -0.000020  -0.016117   0.449955  -0.000224
    12  H   -0.000903  -0.000201  -0.000049   0.000183  -0.000224   0.487091
    13  H   -0.000201  -0.000903  -0.000166  -0.000224   0.000183  -0.000059
              13
     1  C    0.003501
     2  C   -0.031482
     3  C    0.389015
     4  C   -0.032636
     5  C    0.003426
     6  H   -0.000049
     7  H   -0.000201
     8  H   -0.000903
     9  H   -0.000166
    10  H   -0.000224
    11  H    0.000183
    12  H   -0.000059
    13  H    0.487090
 Mulliken charges:
               1
     1  C   -0.325216
     2  C   -0.325214
     3  C   -0.241334
     4  C   -0.400453
     5  C   -0.241337
     6  H    0.177704
     7  H    0.161619
     8  H    0.161620
     9  H    0.177705
    10  H    0.244950
    11  H    0.244948
    12  H    0.182503
    13  H    0.182505
 Sum of Mulliken charges =   0.00000
 Mulliken charges with hydrogens summed into heavy atoms:
               1
     1  C    0.014107
     2  C    0.014111
     3  C   -0.058829
     4  C    0.089445
     5  C   -0.058834
 Electronic spatial extent (au):  <R**2>=            385.3163
 Charge=             -0.0000 electrons
 Dipole moment (field-independent basis, Debye):
    X=             -0.6389    Y=              0.0001    Z=              0.0000  Tot=              0.6389
 Quadrupole moment (field-independent basis, Debye-Ang):
   XX=            -28.7226   YY=            -32.7149   ZZ=            -33.3632
   XY=              0.0000   XZ=             -0.0001   YZ=             -0.1412
 Traceless Quadrupole moment (field-independent basis, Debye-Ang):
   XX=              2.8776   YY=             -1.1147   ZZ=             -1.7630
   XY=              0.0000   XZ=             -0.0001   YZ=             -0.1412
 Octapole moment (field-independent basis, Debye-Ang**2):
  XXX=             -6.4876  YYY=              0.0002  ZZZ=              0.0001  XYY=              0.1652
  XXY=              0.0000  XXZ=              0.0000  XZZ=             -0.0404  YZZ=              0.0001
  YYZ=             -0.0000  XYZ=              0.6636
 Hexadecapole moment (field-independent basis, Debye-Ang**3):
 XXXX=           -235.6692 YYYY=           -217.0082 ZZZZ=            -57.7139 XXXY=              0.0001
 XXXZ=             -0.0001 YYYX=             -0.0001 YYYZ=              1.6686 ZZZX=             -0.0002
 ZZZY=             -1.8775 XXYY=            -79.1531 XXZZ=            -45.5381 YYZZ=            -52.1682
 XXYZ=              1.2269 YYXZ=              0.0000 ZZXY=              0.0001
 N-N= 1.687600533234D+02 E-N=-7.882699731665D+02  KE= 1.934085098272D+02
 No NMR shielding tensors so no spin-rotation constants.
 Leave Link  601 at Wed Jun  2 22:12:55 2021, MaxMem=  1073741824 cpu:               0.5 elap:               0.1
 (Enter /Applications/g16/l9999.exe)
 1\1\GINC-MAC-MINI\SP\CASSCF\6-31G(d)\C5H8\TETSU\02-Jun-2021\0\\#p cass
 cf(2,2)/6-31g(d) guess=read pop=no geom=allcheck\\Title Card Required\
 \0,1\C,0,1.024872,0.772022,-0.091024\C,0,1.024868,-0.772027,0.091022\C
 ,0,-0.408439,-1.174719,-0.078831\C,0,-1.343203,0.000004,-0.000004\C,0,
 -0.40843,1.174721,0.078841\H,0,1.697516,1.278691,0.615685\H,0,1.398694
 ,1.037633,-1.096417\H,0,1.3987,-1.037644,1.096409\H,0,1.697501,-1.2786
 99,-0.615696\H,0,-2.022861,0.053956,-0.873123\H,0,-2.022885,-0.053944,
 0.873094\H,0,-0.742327,2.206653,0.11941\H,0,-0.742342,-2.20665,-0.1193
 91\\Version=EM64M-G16RevB.01\State=1-A\HF=-193.7534891\RMSD=0.000e+00\
 Dipole=-0.2513701,-0.0000204,-0.0000115\Quadrupole=2.1394468,-0.828729
 6,-1.3107171,0.0000024,0.0000389,-0.1049765\PG=C01 [X(C5H8)]\\@


 IT IS THE BEHAVIOR AND DISTRIBUTION OF THE ELECTRONS 
 AROUND THE NUCLEUS THAT GIVES THE FUNDAMENTAL 
 CHARACTER OF AN ATOM:  IT MUST BE THE SAME FOR MOLECULES.

                               -- C. A. COULSON, 1951
 Job cpu time:       0 days  0 hours  0 minutes 29.6 seconds.
 Elapsed time:       0 days  0 hours  0 minutes  6.7 seconds.
 File lengths (MBytes):  RWF=      6 Int=      0 D2E=      0 Chk=      2 Scr=      1
 Normal termination of Gaussian 16 at Wed Jun  2 22:12:55 2021.
