 Entering Gaussian System, Link 0=g16
 Initial command:
 /Applications/g16/l1.exe "/Applications/g16/Scratch/Gau-20497.inp" -scrdir="/Applications/g16/Scratch/"
 Entering Link 1 = /Applications/g16/l1.exe PID=     20499.
  
 Copyright (c) 1988-2017, Gaussian, Inc.  All Rights Reserved.
  
 This is part of the Gaussian(R) 16 program.  It is based on
 the Gaussian(R) 09 system (copyright 2009, Gaussian, Inc.),
 the Gaussian(R) 03 system (copyright 2003, Gaussian, Inc.),
 the Gaussian(R) 98 system (copyright 1998, Gaussian, Inc.),
 the Gaussian(R) 94 system (copyright 1995, Gaussian, Inc.),
 the Gaussian 92(TM) system (copyright 1992, Gaussian, Inc.),
 the Gaussian 90(TM) system (copyright 1990, Gaussian, Inc.),
 the Gaussian 88(TM) system (copyright 1988, Gaussian, Inc.),
 the Gaussian 86(TM) system (copyright 1986, Carnegie Mellon
 University), and the Gaussian 82(TM) system (copyright 1983,
 Carnegie Mellon University). Gaussian is a federally registered
 trademark of Gaussian, Inc.
  
 This software contains proprietary and confidential information,
 including trade secrets, belonging to Gaussian, Inc.
  
 This software is provided under written license and may be
 used, copied, transmitted, or stored only in accord with that
 written license.
  
 The following legend is applicable only to US Government
 contracts under FAR:
  
                    RESTRICTED RIGHTS LEGEND
  
 Use, reproduction and disclosure by the US Government is
 subject to restrictions as set forth in subparagraphs (a)
 and (c) of the Commercial Computer Software - Restricted
 Rights clause in FAR 52.227-19.
  
 Gaussian, Inc.
 340 Quinnipiac St., Bldg. 40, Wallingford CT 06492
  
  
 ---------------------------------------------------------------
 Warning -- This program may not be used in any manner that
 competes with the business of Gaussian, Inc. or will provide
 assistance to any competitor of Gaussian, Inc.  The licensee
 of this program is prohibited from giving any competitor of
 Gaussian, Inc. access to this program.  By using this program,
 the user acknowledges that Gaussian, Inc. is engaged in the
 business of creating and licensing software in the field of
 computational chemistry and represents and warrants to the
 licensee that it is not a competitor of Gaussian, Inc. and that
 it will not use this program in any manner prohibited above.
 ---------------------------------------------------------------
  

 Cite this work as:
 Gaussian 16, Revision B.01,
 M. J. Frisch, G. W. Trucks, H. B. Schlegel, G. E. Scuseria, 
 M. A. Robb, J. R. Cheeseman, G. Scalmani, V. Barone, 
 G. A. Petersson, H. Nakatsuji, X. Li, M. Caricato, A. V. Marenich, 
 J. Bloino, B. G. Janesko, R. Gomperts, B. Mennucci, H. P. Hratchian, 
 J. V. Ortiz, A. F. Izmaylov, J. L. Sonnenberg, D. Williams-Young, 
 F. Ding, F. Lipparini, F. Egidi, J. Goings, B. Peng, A. Petrone, 
 T. Henderson, D. Ranasinghe, V. G. Zakrzewski, J. Gao, N. Rega, 
 G. Zheng, W. Liang, M. Hada, M. Ehara, K. Toyota, R. Fukuda, 
 J. Hasegawa, M. Ishida, T. Nakajima, Y. Honda, O. Kitao, H. Nakai, 
 T. Vreven, K. Throssell, J. A. Montgomery, Jr., J. E. Peralta, 
 F. Ogliaro, M. J. Bearpark, J. J. Heyd, E. N. Brothers, K. N. Kudin, 
 V. N. Staroverov, T. A. Keith, R. Kobayashi, J. Normand, 
 K. Raghavachari, A. P. Rendell, J. C. Burant, S. S. Iyengar, 
 J. Tomasi, M. Cossi, J. M. Millam, M. Klene, C. Adamo, R. Cammi, 
 J. W. Ochterski, R. L. Martin, K. Morokuma, O. Farkas, 
 J. B. Foresman, and D. J. Fox, Gaussian, Inc., Wallingford CT, 2016.
 
 ******************************************
 Gaussian 16:  EM64M-G16RevB.01 20-Dec-2017
                 2-Jun-2021 
 ******************************************
 %nprocshared=6
 Will use up to    6 processors via shared memory.
 %mem=8GB
 %chk=drch_4_1.chk
 -------------------------
 #p uhf/6-31g(d) guess=mix
 -------------------------
 1/38=1,172=1/1;
 2/12=2,17=6,18=5,40=1/2;
 3/5=1,6=6,7=1,11=2,25=1,30=1,116=2/1,2,3;
 4/13=-1/1;
 5/5=2,38=5/2;
 6/7=2,8=2,9=2,10=2,28=1/1;
 99/5=1,9=1/99;
 Leave Link    1 at Wed Jun  2 22:17:13 2021, MaxMem=  1073741824 cpu:               1.2 elap:               0.3
 (Enter /Applications/g16/l101.exe)
 -------------------
 Title Card Required
 -------------------
 Symbolic Z-matrix:
 Charge =  0 Multiplicity = 1
 C                     1.02487   0.77202  -0.09102 
 C                     1.02487  -0.77203   0.09102 
 C                    -0.40844  -1.17472  -0.07883 
 C                    -1.3432    0.       0. 
 C                    -0.40843   1.17472   0.07884 
 H                     1.69752   1.27869   0.61569 
 H                     1.39869   1.03763  -1.09642 
 H                     1.3987   -1.03764   1.09641 
 H                     1.6975   -1.2787   -0.6157 
 H                    -2.02286   0.05396  -0.87312 
 H                    -2.02289  -0.05394   0.87309 
 H                    -0.74233   2.20665   0.11941 
 H                    -0.74234  -2.20665  -0.11939 
 
 ITRead=  0  0  0  0  0  0  0  0  0  0  0  0  0
 MicOpt= -1 -1 -1 -1 -1 -1 -1 -1 -1 -1 -1 -1 -1
 NAtoms=     13 NQM=       13 NQMF=       0 NMMI=      0 NMMIF=      0
                NMic=       0 NMicF=      0.
                    Isotopes and Nuclear Properties:
 (Nuclear quadrupole moments (NQMom) in fm**2, nuclear magnetic moments (NMagM)
  in nuclear magnetons)

  Atom         1           2           3           4           5           6           7           8           9          10
 IAtWgt=          12          12          12          12          12           1           1           1           1           1
 AtmWgt=  12.0000000  12.0000000  12.0000000  12.0000000  12.0000000   1.0078250   1.0078250   1.0078250   1.0078250   1.0078250
 NucSpn=           0           0           0           0           0           1           1           1           1           1
 AtZEff=  -0.0000000  -0.0000000  -0.0000000  -0.0000000  -0.0000000  -0.0000000  -0.0000000  -0.0000000  -0.0000000  -0.0000000
 NQMom=    0.0000000   0.0000000   0.0000000   0.0000000   0.0000000   0.0000000   0.0000000   0.0000000   0.0000000   0.0000000
 NMagM=    0.0000000   0.0000000   0.0000000   0.0000000   0.0000000   2.7928460   2.7928460   2.7928460   2.7928460   2.7928460
 AtZNuc=   6.0000000   6.0000000   6.0000000   6.0000000   6.0000000   1.0000000   1.0000000   1.0000000   1.0000000   1.0000000

  Atom        11          12          13
 IAtWgt=           1           1           1
 AtmWgt=   1.0078250   1.0078250   1.0078250
 NucSpn=           1           1           1
 AtZEff=  -0.0000000  -0.0000000  -0.0000000
 NQMom=    0.0000000   0.0000000   0.0000000
 NMagM=    2.7928460   2.7928460   2.7928460
 AtZNuc=   1.0000000   1.0000000   1.0000000
 Leave Link  101 at Wed Jun  2 22:17:13 2021, MaxMem=  1073741824 cpu:               0.6 elap:               0.1
 (Enter /Applications/g16/l202.exe)
                          Input orientation:                          
 ---------------------------------------------------------------------
 Center     Atomic      Atomic             Coordinates (Angstroms)
 Number     Number       Type             X           Y           Z
 ---------------------------------------------------------------------
      1          6           0        1.024872    0.772022   -0.091024
      2          6           0        1.024868   -0.772027    0.091022
      3          6           0       -0.408439   -1.174719   -0.078831
      4          6           0       -1.343203    0.000004   -0.000004
      5          6           0       -0.408430    1.174721    0.078841
      6          1           0        1.697516    1.278691    0.615685
      7          1           0        1.398694    1.037633   -1.096417
      8          1           0        1.398700   -1.037644    1.096409
      9          1           0        1.697501   -1.278699   -0.615696
     10          1           0       -2.022861    0.053956   -0.873123
     11          1           0       -2.022885   -0.053944    0.873094
     12          1           0       -0.742327    2.206653    0.119410
     13          1           0       -0.742342   -2.206650   -0.119391
 ---------------------------------------------------------------------
                    Distance matrix (angstroms):
                    1          2          3          4          5
     1  C    0.000000
     2  C    1.554744   0.000000
     3  C    2.417505   1.498459   0.000000
     4  C    2.492404   2.492404   1.503320   0.000000
     5  C    1.498458   2.417503   2.354725   1.503322   0.000000
     6  H    1.099364   2.221074   3.307056   3.355605   2.175780
     7  H    1.105037   2.196503   3.032443   3.129983   2.160028
     8  H    2.196505   1.105037   2.160030   3.129995   3.032445
     9  H    2.221073   1.099364   2.175780   3.355598   3.307053
    10  H    3.227379   3.301587   2.178738   1.107783   2.183744
    11  H    3.301601   3.227395   2.183743   1.107781   2.178743
    12  H    2.285922   3.463570   3.403595   2.290112   1.085365
    13  H    3.463573   2.285924   1.085365   2.290111   3.403596
                    6          7          8          9         10
     6  H    0.000000
     7  H    1.754622   0.000000
     8  H    2.384490   3.019149   0.000000
     9  H    2.838405   2.384486   1.754620   0.000000
    10  H    4.190195   3.567144   4.096062   3.960219   0.000000
    11  H    3.960247   4.096061   3.567181   4.190202   1.749547
    12  H    2.657111   2.725585   4.007990   4.317502   2.694252
    13  H    4.317505   4.007990   2.725584   2.657112   2.705214
                   11         12         13
    11  H    0.000000
    12  H    2.705211   0.000000
    13  H    2.694246   4.419759   0.000000
 Stoichiometry    C5H8
 Framework group  C1[X(C5H8)]
 Deg. of freedom    33
 Full point group                 C1      NOp   1
 Largest Abelian subgroup         C1      NOp   1
 Largest concise Abelian subgroup C1      NOp   1
                         Standard orientation:                         
 ---------------------------------------------------------------------
 Center     Atomic      Atomic             Coordinates (Angstroms)
 Number     Number       Type             X           Y           Z
 ---------------------------------------------------------------------
      1          6           0        1.024873   -0.772021    0.091024
      2          6           0        1.024867    0.772028   -0.091022
      3          6           0       -0.408440    1.174719    0.078831
      4          6           0       -1.343203   -0.000005    0.000004
      5          6           0       -0.408429   -1.174721   -0.078841
      6          1           0        1.697517   -1.278689   -0.615685
      7          1           0        1.398695   -1.037631    1.096417
      8          1           0        1.398699    1.037646   -1.096409
      9          1           0        1.697500    1.278701    0.615696
     10          1           0       -2.022861   -0.053958    0.873123
     11          1           0       -2.022885    0.053942   -0.873094
     12          1           0       -0.742325   -2.206654   -0.119410
     13          1           0       -0.742344    2.206649    0.119391
 ---------------------------------------------------------------------
 Rotational constants (GHZ):           7.4527778           6.7324824           3.8090596
 Leave Link  202 at Wed Jun  2 22:17:13 2021, MaxMem=  1073741824 cpu:               0.0 elap:               0.0
 (Enter /Applications/g16/l301.exe)
 Standard basis: 6-31G(d) (6D, 7F)
 Ernie: Thresh=  0.10000D-02 Tol=  0.10000D-05 Strict=F.
 There are    91 symmetry adapted cartesian basis functions of A   symmetry.
 There are    91 symmetry adapted basis functions of A   symmetry.
    91 basis functions,   172 primitive gaussians,    91 cartesian basis functions
    19 alpha electrons       19 beta electrons
       nuclear repulsion energy       168.7600533234 Hartrees.
 IExCor=    0 DFT=F Ex=HF Corr=None ExCW=0 ScaHFX=  1.000000
 ScaDFX=  1.000000  1.000000  1.000000  1.000000 ScalE2=  1.000000  1.000000
 IRadAn=      5 IRanWt=     -1 IRanGd=            0 ICorTp=0 IEmpDi=  4
 NAtoms=   13 NActive=   13 NUniq=   13 SFac= 1.00D+00 NAtFMM=   60 NAOKFM=F Big=F
 Integral buffers will be    131072 words long.
 Raffenetti 2 integral format.
 Two-electron integral symmetry is turned on.
 Leave Link  301 at Wed Jun  2 22:17:13 2021, MaxMem=  1073741824 cpu:               0.1 elap:               0.0
 (Enter /Applications/g16/l302.exe)
 NPDir=0 NMtPBC=     1 NCelOv=     1 NCel=       1 NClECP=     1 NCelD=      1
         NCelK=      1 NCelE2=     1 NClLst=     1 CellRange=     0.0.
 One-electron integrals computed using PRISM.
 One-electron integral symmetry used in STVInt
 NBasis=    91 RedAO= T EigKep=  3.84D-03  NBF=    91
 NBsUse=    91 1.00D-06 EigRej= -1.00D+00 NBFU=    91
 Leave Link  302 at Wed Jun  2 22:17:13 2021, MaxMem=  1073741824 cpu:               0.4 elap:               0.1
 (Enter /Applications/g16/l303.exe)
 DipDrv:  MaxL=1.
 Leave Link  303 at Wed Jun  2 22:17:13 2021, MaxMem=  1073741824 cpu:               0.1 elap:               0.0
 (Enter /Applications/g16/l401.exe)
 ExpMin= 1.61D-01 ExpMax= 3.05D+03 ExpMxC= 4.57D+02 IAcc=3 IRadAn=         5 AccDes= 0.00D+00
 Harris functional with IExCor=  205 and IRadAn=       5 diagonalized for initial guess.
 HarFok:  IExCor=  205 AccDes= 0.00D+00 IRadAn=         5 IDoV= 1 UseB2=F ITyADJ=14
 ICtDFT=  3500011 ScaDFX=  1.000000  1.000000  1.000000  1.000000
 FoFCou: FMM=F IPFlag=           0 FMFlag=      100000 FMFlg1=           0
         NFxFlg=           0 DoJE=T BraDBF=F KetDBF=T FulRan=T
         wScrn=  0.000000 ICntrl=       500 IOpCl=  0 I1Cent=   200000004 NGrid=           0
         NMat0=    1 NMatS0=      1 NMatT0=    0 NMatD0=    1 NMtDS0=    0 NMtDT0=    0
 Petite list used in FoFCou.
 Harris En= -194.247758520852    
 JPrj=0 DoOrth=F DoCkMO=T.
 Mixing orbitals, IMix= 1 IMixAn=  0 NRI=1 NE=   19 Coef=  7.07106781D-01  7.07106781D-01
 Mixing orbitals, IMix= 1 IMixAn=  0 NRI=1 NE=   19 Coef= -7.07106781D-01  7.07106781D-01
 Initial guess <Sx>= 0.0000 <Sy>= 0.0000 <Sz>= 0.0000 <S**2>= 1.0000 S= 0.6180
 Leave Link  401 at Wed Jun  2 22:17:14 2021, MaxMem=  1073741824 cpu:               2.1 elap:               0.4
 (Enter /Applications/g16/l502.exe)
 Keep R1 and R2 ints in memory in canonical form, NReq=18402985.
 FoFCou: FMM=F IPFlag=           0 FMFlag=           0 FMFlg1=           0
         NFxFlg=           0 DoJE=F BraDBF=F KetDBF=F FulRan=T
         wScrn=  0.000000 ICntrl=       600 IOpCl=  0 I1Cent=           0 NGrid=           0
         NMat0=    1 NMatS0=   4186 NMatT0=    0 NMatD0=    1 NMtDS0=    0 NMtDT0=    0
 Symmetry not used in FoFCou.
 Two-electron integral symmetry not used.
 UHF open shell SCF:
 Using DIIS extrapolation, IDIIS=  1040.
 NGot=  1073741824 LenX=  1056196692 LenY=  1056187970
 Requested convergence on RMS density matrix=1.00D-08 within 128 cycles.
 Requested convergence on MAX density matrix=1.00D-06.
 Requested convergence on             energy=1.00D-06.
 No special actions if energy rises.

 Cycle   1  Pass 1  IDiag  1:
 E= -193.628532616890    
 DIIS: error= 6.08D-02 at cycle   1 NSaved=   1.
 NSaved= 1 IEnMin= 1 EnMin= -193.628532616890     IErMin= 1 ErrMin= 6.08D-02
 ErrMax= 6.08D-02  0.00D+00 EMaxC= 1.00D-01 BMatC= 1.45D+00 BMatP= 1.45D+00
 IDIUse=3 WtCom= 3.92D-01 WtEn= 6.08D-01
 Coeff-Com:  0.100D+01
 Coeff-En:   0.100D+01
 Coeff:      0.100D+01
 Gap=     0.486 Goal=   None    Shift=    0.000
 Gap=     0.486 Goal=   None    Shift=    0.000
 GapD=    0.486 DampG=2.000 DampE=0.500 DampFc=1.0000 IDamp=-1.
 RMSDP=7.18D-03 MaxDP=1.29D-01              OVMax= 1.46D-01

 Cycle   2  Pass 1  IDiag  1:
 E= -193.858684806119     Delta-E=       -0.230152189228 Rises=F Damp=F
 DIIS: error= 2.06D-02 at cycle   2 NSaved=   2.
 NSaved= 2 IEnMin= 2 EnMin= -193.858684806119     IErMin= 2 ErrMin= 2.06D-02
 ErrMax= 2.06D-02  0.00D+00 EMaxC= 1.00D-01 BMatC= 2.04D-01 BMatP= 1.45D+00
 IDIUse=3 WtCom= 7.94D-01 WtEn= 2.06D-01
 Coeff-Com:  0.201D+00 0.799D+00
 Coeff-En:   0.000D+00 0.100D+01
 Coeff:      0.160D+00 0.840D+00
 Gap=     0.472 Goal=   None    Shift=    0.000
 Gap=     0.472 Goal=   None    Shift=    0.000
 RMSDP=3.33D-03 MaxDP=5.10D-02 DE=-2.30D-01 OVMax= 5.00D-02

 Cycle   3  Pass 1  IDiag  1:
 E= -193.905273677612     Delta-E=       -0.046588871494 Rises=F Damp=F
 DIIS: error= 6.23D-03 at cycle   3 NSaved=   3.
 NSaved= 3 IEnMin= 3 EnMin= -193.905273677612     IErMin= 3 ErrMin= 6.23D-03
 ErrMax= 6.23D-03  0.00D+00 EMaxC= 1.00D-01 BMatC= 1.54D-02 BMatP= 2.04D-01
 IDIUse=3 WtCom= 9.38D-01 WtEn= 6.23D-02
 Coeff-Com: -0.307D-01 0.164D+00 0.866D+00
 Coeff-En:   0.000D+00 0.000D+00 0.100D+01
 Coeff:     -0.287D-01 0.154D+00 0.875D+00
 Gap=     0.476 Goal=   None    Shift=    0.000
 Gap=     0.476 Goal=   None    Shift=    0.000
 RMSDP=6.65D-04 MaxDP=9.76D-03 DE=-4.66D-02 OVMax= 1.72D-02

 Cycle   4  Pass 1  IDiag  1:
 E= -193.910015490276     Delta-E=       -0.004741812664 Rises=F Damp=F
 DIIS: error= 1.20D-03 at cycle   4 NSaved=   4.
 NSaved= 4 IEnMin= 4 EnMin= -193.910015490276     IErMin= 4 ErrMin= 1.20D-03
 ErrMax= 1.20D-03  0.00D+00 EMaxC= 1.00D-01 BMatC= 6.86D-04 BMatP= 1.54D-02
 IDIUse=3 WtCom= 9.88D-01 WtEn= 1.20D-02
 Coeff-Com:  0.486D-02-0.699D-01-0.234D+00 0.130D+01
 Coeff-En:   0.000D+00 0.000D+00 0.000D+00 0.100D+01
 Coeff:      0.481D-02-0.691D-01-0.231D+00 0.130D+01
 Gap=     0.483 Goal=   None    Shift=    0.000
 Gap=     0.483 Goal=   None    Shift=    0.000
 RMSDP=3.08D-04 MaxDP=6.35D-03 DE=-4.74D-03 OVMax= 5.76D-03

 Cycle   5  Pass 1  IDiag  1:
 E= -193.910517800735     Delta-E=       -0.000502310459 Rises=F Damp=F
 DIIS: error= 6.33D-04 at cycle   5 NSaved=   5.
 NSaved= 5 IEnMin= 5 EnMin= -193.910517800735     IErMin= 5 ErrMin= 6.33D-04
 ErrMax= 6.33D-04  0.00D+00 EMaxC= 1.00D-01 BMatC= 1.24D-04 BMatP= 6.86D-04
 IDIUse=3 WtCom= 9.94D-01 WtEn= 6.33D-03
 Coeff-Com:  0.214D-02-0.207D-02-0.409D-01-0.373D+00 0.141D+01
 Coeff-En:   0.000D+00 0.000D+00 0.000D+00 0.000D+00 0.100D+01
 Coeff:      0.213D-02-0.206D-02-0.406D-01-0.371D+00 0.141D+01
 Gap=     0.486 Goal=   None    Shift=    0.000
 Gap=     0.486 Goal=   None    Shift=    0.000
 RMSDP=1.53D-04 MaxDP=2.61D-03 DE=-5.02D-04 OVMax= 2.77D-03

 Cycle   6  Pass 1  IDiag  1:
 E= -193.910625543746     Delta-E=       -0.000107743011 Rises=F Damp=F
 DIIS: error= 2.89D-04 at cycle   6 NSaved=   6.
 NSaved= 6 IEnMin= 6 EnMin= -193.910625543746     IErMin= 6 ErrMin= 2.89D-04
 ErrMax= 2.89D-04  0.00D+00 EMaxC= 1.00D-01 BMatC= 2.15D-05 BMatP= 1.24D-04
 IDIUse=3 WtCom= 9.97D-01 WtEn= 2.89D-03
 Coeff-Com: -0.124D-02 0.109D-01 0.454D-01-0.698D-01-0.418D+00 0.143D+01
 Coeff-En:   0.000D+00 0.000D+00 0.000D+00 0.000D+00 0.000D+00 0.100D+01
 Coeff:     -0.124D-02 0.109D-01 0.452D-01-0.696D-01-0.417D+00 0.143D+01
 Gap=     0.487 Goal=   None    Shift=    0.000
 Gap=     0.487 Goal=   None    Shift=    0.000
 RMSDP=6.69D-05 MaxDP=1.05D-03 DE=-1.08D-04 OVMax= 1.37D-03

 Cycle   7  Pass 1  IDiag  1:
 E= -193.910644796820     Delta-E=       -0.000019253074 Rises=F Damp=F
 DIIS: error= 9.98D-05 at cycle   7 NSaved=   7.
 NSaved= 7 IEnMin= 7 EnMin= -193.910644796820     IErMin= 7 ErrMin= 9.98D-05
 ErrMax= 9.98D-05  0.00D+00 EMaxC= 1.00D-01 BMatC= 3.78D-06 BMatP= 2.15D-05
 IDIUse=1 WtCom= 1.00D+00 WtEn= 0.00D+00
 Coeff-Com: -0.628D-03 0.220D-02 0.151D-01 0.727D-01-0.376D+00 0.206D+00
 Coeff-Com:  0.108D+01
 Coeff:     -0.628D-03 0.220D-02 0.151D-01 0.727D-01-0.376D+00 0.206D+00
 Coeff:      0.108D+01
 Gap=     0.487 Goal=   None    Shift=    0.000
 Gap=     0.487 Goal=   None    Shift=    0.000
 RMSDP=2.97D-05 MaxDP=4.28D-04 DE=-1.93D-05 OVMax= 6.37D-04

 Cycle   8  Pass 1  IDiag  1:
 E= -193.910648017607     Delta-E=       -0.000003220787 Rises=F Damp=F
 DIIS: error= 3.08D-05 at cycle   8 NSaved=   8.
 NSaved= 8 IEnMin= 8 EnMin= -193.910648017607     IErMin= 8 ErrMin= 3.08D-05
 ErrMax= 3.08D-05  0.00D+00 EMaxC= 1.00D-01 BMatC= 4.45D-07 BMatP= 3.78D-06
 IDIUse=1 WtCom= 1.00D+00 WtEn= 0.00D+00
 Coeff-Com:  0.477D-03-0.258D-02-0.141D-01-0.267D-01 0.239D+00-0.270D+00
 Coeff-Com: -0.557D+00 0.163D+01
 Coeff:      0.477D-03-0.258D-02-0.141D-01-0.267D-01 0.239D+00-0.270D+00
 Coeff:     -0.557D+00 0.163D+01
 Gap=     0.487 Goal=   None    Shift=    0.000
 Gap=     0.487 Goal=   None    Shift=    0.000
 RMSDP=1.21D-05 MaxDP=1.88D-04 DE=-3.22D-06 OVMax= 3.03D-04

 Cycle   9  Pass 1  IDiag  1:
 E= -193.910648494594     Delta-E=       -0.000000476987 Rises=F Damp=F
 DIIS: error= 1.37D-05 at cycle   9 NSaved=   9.
 NSaved= 9 IEnMin= 9 EnMin= -193.910648494594     IErMin= 9 ErrMin= 1.37D-05
 ErrMax= 1.37D-05  0.00D+00 EMaxC= 1.00D-01 BMatC= 7.25D-08 BMatP= 4.45D-07
 IDIUse=1 WtCom= 1.00D+00 WtEn= 0.00D+00
 Coeff-Com: -0.286D-03 0.174D-02 0.916D-02 0.104D-01-0.138D+00 0.189D+00
 Coeff-Com:  0.297D+00-0.131D+01 0.194D+01
 Coeff:     -0.286D-03 0.174D-02 0.916D-02 0.104D-01-0.138D+00 0.189D+00
 Coeff:      0.297D+00-0.131D+01 0.194D+01
 Gap=     0.487 Goal=   None    Shift=    0.000
 Gap=     0.487 Goal=   None    Shift=    0.000
 RMSDP=5.77D-06 MaxDP=9.87D-05 DE=-4.77D-07 OVMax= 1.46D-04

 Cycle  10  Pass 1  IDiag  1:
 E= -193.910648580677     Delta-E=       -0.000000086083 Rises=F Damp=F
 DIIS: error= 4.73D-06 at cycle  10 NSaved=  10.
 NSaved=10 IEnMin=10 EnMin= -193.910648580677     IErMin=10 ErrMin= 4.73D-06
 ErrMax= 4.73D-06  0.00D+00 EMaxC= 1.00D-01 BMatC= 6.81D-09 BMatP= 7.25D-08
 IDIUse=1 WtCom= 1.00D+00 WtEn= 0.00D+00
 Coeff-Com:  0.317D-04-0.230D-03-0.121D-02-0.254D-03 0.151D-01-0.278D-01
 Coeff-Com: -0.274D-01 0.234D+00-0.662D+00 0.147D+01
 Coeff:      0.317D-04-0.230D-03-0.121D-02-0.254D-03 0.151D-01-0.278D-01
 Coeff:     -0.274D-01 0.234D+00-0.662D+00 0.147D+01
 Gap=     0.487 Goal=   None    Shift=    0.000
 Gap=     0.487 Goal=   None    Shift=    0.000
 RMSDP=1.62D-06 MaxDP=2.67D-05 DE=-8.61D-08 OVMax= 3.76D-05

 Cycle  11  Pass 1  IDiag  1:
 E= -193.910648588128     Delta-E=       -0.000000007451 Rises=F Damp=F
 DIIS: error= 1.30D-06 at cycle  11 NSaved=  11.
 NSaved=11 IEnMin=11 EnMin= -193.910648588128     IErMin=11 ErrMin= 1.30D-06
 ErrMax= 1.30D-06  0.00D+00 EMaxC= 1.00D-01 BMatC= 7.48D-10 BMatP= 6.81D-09
 IDIUse=1 WtCom= 1.00D+00 WtEn= 0.00D+00
 Coeff-Com:  0.303D-04-0.190D-03-0.988D-03-0.123D-02 0.155D-01-0.208D-01
 Coeff-Com: -0.340D-01 0.141D+00-0.191D+00-0.953D-01 0.119D+01
 Coeff:      0.303D-04-0.190D-03-0.988D-03-0.123D-02 0.155D-01-0.208D-01
 Coeff:     -0.340D-01 0.141D+00-0.191D+00-0.953D-01 0.119D+01
 Gap=     0.487 Goal=   None    Shift=    0.000
 Gap=     0.487 Goal=   None    Shift=    0.000
 RMSDP=4.57D-07 MaxDP=8.19D-06 DE=-7.45D-09 OVMax= 8.56D-06

 Cycle  12  Pass 1  IDiag  1:
 E= -193.910648588800     Delta-E=       -0.000000000672 Rises=F Damp=F
 DIIS: error= 4.09D-07 at cycle  12 NSaved=  12.
 NSaved=12 IEnMin=12 EnMin= -193.910648588800     IErMin=12 ErrMin= 4.09D-07
 ErrMax= 4.09D-07  0.00D+00 EMaxC= 1.00D-01 BMatC= 1.12D-10 BMatP= 7.48D-10
 IDIUse=1 WtCom= 1.00D+00 WtEn= 0.00D+00
 Coeff-Com: -0.710D-05 0.499D-04 0.264D-03 0.177D-03-0.366D-02 0.588D-02
 Coeff-Com:  0.718D-02-0.466D-01 0.109D+00-0.192D+00-0.909D-01 0.121D+01
 Coeff:     -0.710D-05 0.499D-04 0.264D-03 0.177D-03-0.366D-02 0.588D-02
 Coeff:      0.718D-02-0.466D-01 0.109D+00-0.192D+00-0.909D-01 0.121D+01
 Gap=     0.487 Goal=   None    Shift=    0.000
 Gap=     0.487 Goal=   None    Shift=    0.000
 RMSDP=1.79D-07 MaxDP=3.11D-06 DE=-6.72D-10 OVMax= 3.06D-06

 Cycle  13  Pass 1  IDiag  1:
 E= -193.910648588894     Delta-E=       -0.000000000094 Rises=F Damp=F
 DIIS: error= 1.57D-07 at cycle  13 NSaved=  13.
 NSaved=13 IEnMin=13 EnMin= -193.910648588894     IErMin=13 ErrMin= 1.57D-07
 ErrMax= 1.57D-07  0.00D+00 EMaxC= 1.00D-01 BMatC= 1.83D-11 BMatP= 1.12D-10
 IDIUse=1 WtCom= 1.00D+00 WtEn= 0.00D+00
 Coeff-Com: -0.167D-05 0.862D-05 0.425D-04 0.115D-03-0.913D-03 0.889D-03
 Coeff-Com:  0.238D-02-0.318D-02-0.134D-01 0.891D-01-0.159D+00-0.422D+00
 Coeff-Com:  0.151D+01
 Coeff:     -0.167D-05 0.862D-05 0.425D-04 0.115D-03-0.913D-03 0.889D-03
 Coeff:      0.238D-02-0.318D-02-0.134D-01 0.891D-01-0.159D+00-0.422D+00
 Coeff:      0.151D+01
 Gap=     0.487 Goal=   None    Shift=    0.000
 Gap=     0.487 Goal=   None    Shift=    0.000
 RMSDP=8.89D-08 MaxDP=1.33D-06 DE=-9.44D-11 OVMax= 1.59D-06

 Cycle  14  Pass 1  IDiag  1:
 E= -193.910648588911     Delta-E=       -0.000000000017 Rises=F Damp=F
 DIIS: error= 4.44D-08 at cycle  14 NSaved=  14.
 NSaved=14 IEnMin=14 EnMin= -193.910648588911     IErMin=14 ErrMin= 4.44D-08
 ErrMax= 4.44D-08  0.00D+00 EMaxC= 1.00D-01 BMatC= 1.54D-12 BMatP= 1.83D-11
 IDIUse=1 WtCom= 1.00D+00 WtEn= 0.00D+00
 Coeff-Com:  0.153D-05-0.983D-05-0.500D-04-0.647D-04 0.815D-03-0.109D-02
 Coeff-Com: -0.180D-02 0.730D-02-0.945D-02-0.719D-02 0.711D-01-0.131D-01
 Coeff-Com: -0.502D+00 0.146D+01
 Coeff:      0.153D-05-0.983D-05-0.500D-04-0.647D-04 0.815D-03-0.109D-02
 Coeff:     -0.180D-02 0.730D-02-0.945D-02-0.719D-02 0.711D-01-0.131D-01
 Coeff:     -0.502D+00 0.146D+01
 Gap=     0.487 Goal=   None    Shift=    0.000
 Gap=     0.487 Goal=   None    Shift=    0.000
 RMSDP=2.48D-08 MaxDP=3.78D-07 DE=-1.65D-11 OVMax= 4.91D-07

 Cycle  15  Pass 1  IDiag  1:
 E= -193.910648588914     Delta-E=       -0.000000000003 Rises=F Damp=F
 DIIS: error= 1.08D-08 at cycle  15 NSaved=  15.
 NSaved=15 IEnMin=15 EnMin= -193.910648588914     IErMin=15 ErrMin= 1.08D-08
 ErrMax= 1.08D-08  0.00D+00 EMaxC= 1.00D-01 BMatC= 5.87D-14 BMatP= 1.54D-12
 IDIUse=1 WtCom= 1.00D+00 WtEn= 0.00D+00
 Coeff-Com: -0.421D-06 0.277D-05 0.144D-04 0.134D-04-0.212D-03 0.305D-03
 Coeff-Com:  0.447D-03-0.217D-02 0.373D-02-0.260D-02-0.123D-01 0.259D-01
 Coeff-Com:  0.712D-01-0.460D+00 0.138D+01
 Coeff:     -0.421D-06 0.277D-05 0.144D-04 0.134D-04-0.212D-03 0.305D-03
 Coeff:      0.447D-03-0.217D-02 0.373D-02-0.260D-02-0.123D-01 0.259D-01
 Coeff:      0.712D-01-0.460D+00 0.138D+01
 Gap=     0.487 Goal=   None    Shift=    0.000
 Gap=     0.487 Goal=   None    Shift=    0.000
 RMSDP=4.32D-09 MaxDP=5.98D-08 DE=-3.18D-12 OVMax= 7.70D-08

 SCF Done:  E(UHF) =  -193.910648589     A.U. after   15 cycles
            NFock= 15  Conv=0.43D-08     -V/T= 2.0011
 <Sx>= 0.0000 <Sy>= 0.0000 <Sz>= 0.0000 <S**2>= 1.0264 S= 0.6298
 <L.S>= 0.000000000000E+00
 KE= 1.937054451417D+02 PE=-7.886581460664D+02 EE= 2.322819990124D+02
 Annihilation of the first spin contaminant:
 S**2 before annihilation     1.0264,   after     0.2157
 Leave Link  502 at Wed Jun  2 22:17:14 2021, MaxMem=  1073741824 cpu:               2.5 elap:               0.7
 (Enter /Applications/g16/l601.exe)
 Copying SCF densities to generalized density rwf, IOpCl= 1 IROHF=0.

 **********************************************************************

            Population analysis using the SCF Density.

 **********************************************************************

 Orbital symmetries:
 Alpha Orbitals:
       Occupied  (A) (A) (A) (A) (A) (A) (A) (A) (A) (A) (A) (A)
                 (A) (A) (A) (A) (A) (A) (A)
       Virtual   (A) (A) (A) (A) (A) (A) (A) (A) (A) (A) (A) (A)
                 (A) (A) (A) (A) (A) (A) (A) (A) (A) (A) (A) (A)
                 (A) (A) (A) (A) (A) (A) (A) (A) (A) (A) (A) (A)
                 (A) (A) (A) (A) (A) (A) (A) (A) (A) (A) (A) (A)
                 (A) (A) (A) (A) (A) (A) (A) (A) (A) (A) (A) (A)
                 (A) (A) (A) (A) (A) (A) (A) (A) (A) (A) (A) (A)
 Beta  Orbitals:
       Occupied  (A) (A) (A) (A) (A) (A) (A) (A) (A) (A) (A) (A)
                 (A) (A) (A) (A) (A) (A) (A)
       Virtual   (A) (A) (A) (A) (A) (A) (A) (A) (A) (A) (A) (A)
                 (A) (A) (A) (A) (A) (A) (A) (A) (A) (A) (A) (A)
                 (A) (A) (A) (A) (A) (A) (A) (A) (A) (A) (A) (A)
                 (A) (A) (A) (A) (A) (A) (A) (A) (A) (A) (A) (A)
                 (A) (A) (A) (A) (A) (A) (A) (A) (A) (A) (A) (A)
                 (A) (A) (A) (A) (A) (A) (A) (A) (A) (A) (A) (A)
 The electronic state is 1-A.
 Alpha  occ. eigenvalues --  -11.22383 -11.22372 -11.22268 -11.21993 -11.19789
 Alpha  occ. eigenvalues --   -1.11179  -0.96550  -0.92880  -0.76489  -0.72438
 Alpha  occ. eigenvalues --   -0.65641  -0.62099  -0.55368  -0.50341  -0.50070
 Alpha  occ. eigenvalues --   -0.49567  -0.48369  -0.47548  -0.32090
 Alpha virt. eigenvalues --    0.16571   0.24530   0.29132   0.29647   0.29951
 Alpha virt. eigenvalues --    0.31720   0.32769   0.33786   0.36351   0.37997
 Alpha virt. eigenvalues --    0.38064   0.46268   0.47589   0.58220   0.75858
 Alpha virt. eigenvalues --    0.76698   0.77192   0.81576   0.81943   0.83688
 Alpha virt. eigenvalues --    0.84694   0.88255   0.92861   0.94282   0.96927
 Alpha virt. eigenvalues --    0.97657   1.05030   1.10011   1.11903   1.13273
 Alpha virt. eigenvalues --    1.13766   1.14361   1.17013   1.18505   1.20486
 Alpha virt. eigenvalues --    1.21783   1.23046   1.23792   1.44665   1.46336
 Alpha virt. eigenvalues --    1.67150   1.67965   1.72918   1.86791   1.93947
 Alpha virt. eigenvalues --    2.04618   2.12480   2.12852   2.19867   2.21233
 Alpha virt. eigenvalues --    2.28777   2.29429   2.36748   2.37758   2.41478
 Alpha virt. eigenvalues --    2.45019   2.56803   2.64967   2.72177   2.75760
 Alpha virt. eigenvalues --    2.77851   2.81224   2.93995   2.95065   3.00324
 Alpha virt. eigenvalues --    3.07171   3.24514   4.52935   4.59961   4.68881
 Alpha virt. eigenvalues --    4.91900   4.96238
  Beta  occ. eigenvalues --  -11.22383 -11.22372 -11.22268 -11.21993 -11.19789
  Beta  occ. eigenvalues --   -1.11179  -0.96550  -0.92880  -0.76489  -0.72438
  Beta  occ. eigenvalues --   -0.65641  -0.62099  -0.55368  -0.50341  -0.50070
  Beta  occ. eigenvalues --   -0.49567  -0.48369  -0.47548  -0.32090
  Beta virt. eigenvalues --    0.16571   0.24530   0.29132   0.29647   0.29951
  Beta virt. eigenvalues --    0.31720   0.32769   0.33786   0.36351   0.37997
  Beta virt. eigenvalues --    0.38064   0.46269   0.47589   0.58220   0.75857
  Beta virt. eigenvalues --    0.76698   0.77192   0.81576   0.81943   0.83688
  Beta virt. eigenvalues --    0.84694   0.88255   0.92861   0.94282   0.96927
  Beta virt. eigenvalues --    0.97657   1.05030   1.10011   1.11903   1.13273
  Beta virt. eigenvalues --    1.13766   1.14361   1.17013   1.18505   1.20486
  Beta virt. eigenvalues --    1.21783   1.23046   1.23792   1.44665   1.46336
  Beta virt. eigenvalues --    1.67150   1.67965   1.72918   1.86791   1.93947
  Beta virt. eigenvalues --    2.04618   2.12480   2.12852   2.19867   2.21233
  Beta virt. eigenvalues --    2.28777   2.29429   2.36748   2.37758   2.41478
  Beta virt. eigenvalues --    2.45019   2.56803   2.64967   2.72177   2.75760
  Beta virt. eigenvalues --    2.77851   2.81224   2.93995   2.95065   3.00324
  Beta virt. eigenvalues --    3.07171   3.24514   4.52935   4.59961   4.68881
  Beta virt. eigenvalues --    4.91900   4.96238
          Condensed to atoms (all electrons):
               1          2          3          4          5          6
     1  C    5.084922   0.334172  -0.064609  -0.067279   0.348283   0.397741
     2  C    0.334172   5.084922   0.348283  -0.067279  -0.064609  -0.032617
     3  C   -0.064609   0.348283   5.398309   0.342866  -0.066342   0.003927
     4  C   -0.067279  -0.067279   0.342866   5.036991   0.342867   0.003142
     5  C    0.348283  -0.064609  -0.066342   0.342867   5.398308  -0.041051
     6  H    0.397741  -0.032617   0.003927   0.003142  -0.041051   0.540182
     7  H    0.391518  -0.037700   0.000094   0.003280  -0.048035  -0.035085
     8  H   -0.037699   0.391518  -0.048034   0.003280   0.000094  -0.004121
     9  H   -0.032618   0.397741  -0.041051   0.003142   0.003928   0.001004
    10  H    0.001723   0.003610  -0.043564   0.393707  -0.041091  -0.000139
    11  H    0.003610   0.001723  -0.041091   0.393707  -0.043563   0.000024
    12  H   -0.031494   0.003578   0.003498  -0.030888   0.384636  -0.000372
    13  H    0.003578  -0.031494   0.384636  -0.030888   0.003498  -0.000059
               7          8          9         10         11         12
     1  C    0.391518  -0.037699  -0.032618   0.001723   0.003610  -0.031494
     2  C   -0.037700   0.391518   0.397741   0.003610   0.001723   0.003578
     3  C    0.000094  -0.048034  -0.041051  -0.043564  -0.041091   0.003498
     4  C    0.003280   0.003280   0.003142   0.393707   0.393707  -0.030888
     5  C   -0.048035   0.000094   0.003928  -0.041091  -0.043563   0.384636
     6  H   -0.035085  -0.004121   0.001004  -0.000139   0.000024  -0.000372
     7  H    0.562111   0.003393  -0.004121   0.000292  -0.000149  -0.000144
     8  H    0.003393   0.562110  -0.035085  -0.000149   0.000292  -0.000135
     9  H   -0.004121  -0.035085   0.540184   0.000024  -0.000139  -0.000059
    10  H    0.000292  -0.000149   0.000024   0.563478  -0.042180  -0.000168
    11  H   -0.000149   0.000292  -0.000139  -0.042180   0.563475  -0.000190
    12  H   -0.000144  -0.000135  -0.000059  -0.000168  -0.000190   0.496458
    13  H   -0.000135  -0.000144  -0.000372  -0.000190  -0.000168  -0.000062
              13
     1  C    0.003578
     2  C   -0.031494
     3  C    0.384636
     4  C   -0.030888
     5  C    0.003498
     6  H   -0.000059
     7  H   -0.000135
     8  H   -0.000144
     9  H   -0.000372
    10  H   -0.000190
    11  H   -0.000168
    12  H   -0.000062
    13  H    0.496458
          Atomic-Atomic Spin Densities.
               1          2          3          4          5          6
     1  C   -0.173767   0.000000   0.009318  -0.008305  -0.057438   0.014957
     2  C    0.000000   0.173768   0.057438   0.008305  -0.009318   0.000202
     3  C    0.009318   0.057438  -1.459252   0.061374  -0.000000   0.000301
     4  C   -0.008305   0.008305   0.061374   0.000000  -0.061373   0.000300
     5  C   -0.057438  -0.009318  -0.000000  -0.061373   1.459251  -0.016931
     6  H    0.014957   0.000202   0.000301   0.000300  -0.016931   0.054427
     7  H    0.014464  -0.005229  -0.001880   0.001033  -0.026507  -0.014641
     8  H    0.005228  -0.014464   0.026507  -0.001033   0.001880  -0.001500
     9  H   -0.000202  -0.014957   0.016931  -0.000300  -0.000302  -0.000000
    10  H    0.000856  -0.000543   0.017458   0.000551  -0.023178  -0.000079
    11  H    0.000543  -0.000856   0.023178  -0.000551  -0.017457   0.000099
    12  H    0.000852  -0.000003  -0.000208   0.000579  -0.010845   0.000682
    13  H    0.000003  -0.000852   0.010845  -0.000579   0.000208   0.000007
               7          8          9         10         11         12
     1  C    0.014464   0.005228  -0.000202   0.000856   0.000543   0.000852
     2  C   -0.005229  -0.014464  -0.014957  -0.000543  -0.000856  -0.000003
     3  C   -0.001880   0.026507   0.016931   0.017458   0.023178  -0.000208
     4  C    0.001033  -0.001033  -0.000300   0.000551  -0.000551   0.000579
     5  C   -0.026507   0.001880  -0.000302  -0.023178  -0.017457  -0.010845
     6  H   -0.014641  -0.001500  -0.000000  -0.000079   0.000099   0.000682
     7  H    0.096041   0.000000   0.001501   0.000622  -0.000169  -0.000285
     8  H    0.000000  -0.096040   0.014641   0.000169  -0.000622   0.000019
     9  H    0.001501   0.014641  -0.054429  -0.000099   0.000079  -0.000007
    10  H    0.000622   0.000169  -0.000099   0.012182   0.000000  -0.000690
    11  H   -0.000169  -0.000622   0.000079   0.000000  -0.012183   0.000581
    12  H   -0.000285   0.000019  -0.000007  -0.000690   0.000581  -0.085055
    13  H   -0.000019   0.000285  -0.000682  -0.000581   0.000690   0.000000
              13
     1  C    0.000003
     2  C   -0.000852
     3  C    0.010845
     4  C   -0.000579
     5  C    0.000208
     6  H    0.000007
     7  H   -0.000019
     8  H    0.000285
     9  H   -0.000682
    10  H   -0.000581
    11  H    0.000690
    12  H    0.000000
    13  H    0.085055
 Mulliken charges and spin densities:
               1          2
     1  C   -0.331848  -0.193492
     2  C   -0.331847   0.193492
     3  C   -0.176923  -1.237991
     4  C   -0.326647   0.000001
     5  C   -0.176923   1.237991
     6  H    0.167422   0.037825
     7  H    0.164681   0.064931
     8  H    0.164681  -0.064930
     9  H    0.167422  -0.037826
    10  H    0.164648   0.006667
    11  H    0.164649  -0.006668
    12  H    0.175342  -0.094379
    13  H    0.175342   0.094379
 Sum of Mulliken charges =  -0.00000   0.00000
 Mulliken charges and spin densities with hydrogens summed into heavy atoms:
               1          2
     1  C    0.000255  -0.090735
     2  C    0.000255   0.090736
     3  C   -0.001581  -1.143612
     4  C    0.002651  -0.000000
     5  C   -0.001581   1.143612
 Electronic spatial extent (au):  <R**2>=            386.0046
 Charge=              0.0000 electrons
 Dipole moment (field-independent basis, Debye):
    X=              0.0629    Y=             -0.0000    Z=              0.0000  Tot=              0.0629
 Quadrupole moment (field-independent basis, Debye-Ang):
   XX=            -31.5692   YY=            -31.3686   ZZ=            -32.7886
   XY=             -0.0000   XZ=              0.0000   YZ=             -0.0563
 Traceless Quadrupole moment (field-independent basis, Debye-Ang):
   XX=              0.3396   YY=              0.5402   ZZ=             -0.8798
   XY=             -0.0000   XZ=              0.0000   YZ=             -0.0563
 Octapole moment (field-independent basis, Debye-Ang**2):
  XXX=             -0.2053  YYY=             -0.0000  ZZZ=              0.0001  XYY=             -0.9619
  XXY=              0.0000  XXZ=             -0.0001  XZZ=              0.9700  YZZ=              0.0000
  YYZ=             -0.0000  XYZ=              0.2793
 Hexadecapole moment (field-independent basis, Debye-Ang**3):
 XXXX=           -254.2582 YYYY=           -213.1967 ZZZZ=            -55.8936 XXXY=             -0.0001
 XXXZ=              0.0001 YYYX=             -0.0001 YYYZ=              1.4758 ZZZX=             -0.0000
 ZZZY=             -1.4334 XXYY=            -78.5138 XXZZ=            -48.9134 YYZZ=            -49.3681
 XXYZ=              0.9856 YYXZ=              0.0000 ZZXY=              0.0000
 N-N= 1.687600533234D+02 E-N=-7.886581463485D+02  KE= 1.937054451417D+02
                          Isotropic Fermi Contact Couplings
        Atom                 a.u.       MegaHertz       Gauss      10(-4) cm-1
     1  C(13)             -0.06316     -35.50354     -12.66854     -11.84271
     2  C(13)              0.06316      35.50378      12.66863      11.84279
     3  C(13)             -0.22801    -128.16482     -45.73239     -42.75118
     4  C(13)              0.00000       0.00010       0.00003       0.00003
     5  C(13)              0.22801     128.16514      45.73251      42.75129
     6  H(1)               0.01810      40.45298      14.43463      13.49366
     7  H(1)               0.03000      67.05460      23.92675      22.36701
     8  H(1)              -0.03000     -67.05381     -23.92647     -22.36674
     9  H(1)              -0.01810     -40.45387     -14.43495     -13.49396
    10  H(1)               0.00208       4.64278       1.65666       1.54867
    11  H(1)              -0.00208      -4.64373      -1.65700      -1.54898
    12  H(1)              -0.02906     -64.94855     -23.17526     -21.66451
    13  H(1)               0.02906      64.94876      23.17533      21.66458
 --------------------------------------------------------
       Center         ----  Spin Dipole Couplings  ----
                      3XX-RR        3YY-RR        3ZZ-RR
 --------------------------------------------------------
     1   Atom        0.000467     -0.007664      0.007197
     2   Atom       -0.000467      0.007664     -0.007198
     3   Atom        0.526678      0.554220     -1.080898
     4   Atom        0.000000     -0.000000     -0.000000
     5   Atom       -0.526678     -0.554217      1.080894
     6   Atom        0.017602     -0.011473     -0.006129
     7   Atom        0.013992     -0.009896     -0.004095
     8   Atom       -0.013992      0.009896      0.004095
     9   Atom       -0.017602      0.011473      0.006129
    10   Atom       -0.001120     -0.000586      0.001706
    11   Atom        0.001120      0.000585     -0.001705
    12   Atom       -0.058504      0.064846     -0.006342
    13   Atom        0.058504     -0.064845      0.006342
 --------------------------------------------------------
                        XY            XZ            YZ
 --------------------------------------------------------
     1   Atom        0.006545     -0.001255      0.000863
     2   Atom        0.006545     -0.001255     -0.000862
     3   Atom        0.006875     -0.088672      0.103973
     4   Atom        0.014270      0.001785     -0.000000
     5   Atom        0.006876     -0.088674     -0.103992
     6   Atom        0.006271      0.000751     -0.004053
     7   Atom        0.009932      0.005256      0.005323
     8   Atom        0.009932      0.005256     -0.005323
     9   Atom        0.006271      0.000750      0.004053
    10   Atom       -0.024389     -0.001638      0.009179
    11   Atom       -0.024389     -0.001638     -0.009179
    12   Atom        0.047197     -0.001877      0.001377
    13   Atom        0.047198     -0.001877     -0.001376
 --------------------------------------------------------


 ---------------------------------------------------------------------------------
              Anisotropic Spin Dipole Couplings in Principal Axis System
 ---------------------------------------------------------------------------------

       Atom             a.u.   MegaHertz   Gauss  10(-4) cm-1        Axes

              Baa    -0.0114    -1.530    -0.546    -0.510 -0.4875  0.8701 -0.0732
     1 C(13)  Bbb     0.0040     0.533     0.190     0.178  0.8479  0.4917  0.1982
              Bcc     0.0074     0.998     0.356     0.333 -0.2085 -0.0345  0.9774
 
              Baa    -0.0074    -0.998    -0.356    -0.333  0.2084 -0.0345  0.9774
     2 C(13)  Bbb    -0.0040    -0.533    -0.190    -0.178  0.8479 -0.4917 -0.1981
              Bcc     0.0114     1.530     0.546     0.510  0.4875  0.8701 -0.0732
 
              Baa    -1.0924  -146.585   -52.305   -48.896  0.0548 -0.0632  0.9965
     3 C(13)  Bbb     0.5315    71.323    25.450    23.791  0.9976 -0.0392 -0.0574
              Bcc     0.5609    75.262    26.855    25.105  0.0427  0.9972  0.0608
 
              Baa    -0.0144    -1.930    -0.689    -0.644  0.7071 -0.7016 -0.0878
     4 C(13)  Bbb     0.0000     0.000     0.000     0.000  0.0000 -0.1241  0.9923
              Bcc     0.0144     1.930     0.689     0.644  0.7071  0.7016  0.0878
 
              Baa    -0.5609   -75.262   -26.855   -25.105 -0.0427  0.9972  0.0609
     5 C(13)  Bbb    -0.5315   -71.323   -25.450   -23.791  0.9976  0.0392  0.0574
              Bcc     1.0924   146.585    52.305    48.896 -0.0548 -0.0632  0.9965
 
              Baa    -0.0147    -7.865    -2.806    -2.623 -0.1814  0.8836  0.4317
     6 H(1)   Bbb    -0.0042    -2.218    -0.791    -0.740  0.0905 -0.4221  0.9020
              Bcc     0.0189    10.083     3.598     3.363  0.9792  0.2027 -0.0034
 
              Baa    -0.0146    -7.803    -2.784    -2.603 -0.2542  0.9083 -0.3323
     7 H(1)   Bbb    -0.0049    -2.621    -0.935    -0.874 -0.3695  0.2263  0.9012
              Bcc     0.0195    10.424     3.720     3.477  0.8938  0.3519  0.2781
 
              Baa    -0.0195   -10.424    -3.720    -3.477  0.8938 -0.3519 -0.2780
     8 H(1)   Bbb     0.0049     2.621     0.935     0.874  0.3695  0.2264  0.9012
              Bcc     0.0146     7.803     2.784     2.603  0.2542  0.9083 -0.3323
 
              Baa    -0.0189   -10.083    -3.598    -3.363  0.9792 -0.2027  0.0035
     9 H(1)   Bbb     0.0042     2.218     0.791     0.740 -0.0905 -0.4221  0.9020
              Bcc     0.0147     7.865     2.806     2.623  0.1813  0.8836  0.4317
 
              Baa    -0.0263   -14.026    -5.005    -4.678  0.6762  0.7108 -0.1935
    10 H(1)   Bbb     0.0003     0.144     0.051     0.048  0.3536 -0.0827  0.9317
              Bcc     0.0260    13.882     4.953     4.631 -0.6463  0.6985  0.3072
 
              Baa    -0.0260   -13.882    -4.953    -4.631  0.6463  0.6985  0.3072
    11 H(1)   Bbb    -0.0003    -0.144    -0.051    -0.048 -0.3535 -0.0827  0.9318
              Bcc     0.0263    14.026     5.005     4.678 -0.6762  0.7108 -0.1935
 
              Baa    -0.0746   -39.783   -14.196   -13.270  0.9466 -0.3208  0.0325
    12 H(1)   Bbb    -0.0063    -3.348    -1.195    -1.117 -0.0334  0.0028  0.9994
              Bcc     0.0808    43.131    15.390    14.387  0.3207  0.9471  0.0081
 
              Baa    -0.0808   -43.131   -15.390   -14.387 -0.3207  0.9471  0.0080
    13 H(1)   Bbb     0.0063     3.348     1.195     1.117  0.0334  0.0028  0.9994
              Bcc     0.0746    39.783    14.196    13.270  0.9466  0.3208 -0.0325
 

 ---------------------------------------------------------------------------------

 No NMR shielding tensors so no spin-rotation constants.
 Leave Link  601 at Wed Jun  2 22:17:14 2021, MaxMem=  1073741824 cpu:               0.7 elap:               0.1
 (Enter /Applications/g16/l9999.exe)
 1\1\GINC-MAC-MINI\SP\UHF\6-31G(d)\C5H8\TETSU\02-Jun-2021\0\\#p uhf/6-3
 1g(d) guess=mix\\Title Card Required\\0,1\C,0,1.024872,0.772022,-0.091
 024\C,0,1.024868,-0.772027,0.091022\C,0,-0.408439,-1.174719,-0.078831\
 C,0,-1.343203,0.000004,-0.000004\C,0,-0.40843,1.174721,0.078841\H,0,1.
 697516,1.278691,0.615685\H,0,1.398694,1.037633,-1.096417\H,0,1.3987,-1
 .037644,1.096409\H,0,1.697501,-1.278699,-0.615696\H,0,-2.022861,0.0539
 56,-0.873123\H,0,-2.022885,-0.053944,0.873094\H,0,-0.742327,2.206653,0
 .11941\H,0,-0.742342,-2.20665,-0.119391\\Version=EM64M-G16RevB.01\Stat
 e=1-A\HF=-193.9106486\S2=1.026369\S2-1=0.\S2A=0.215698\RMSD=4.324e-09\
 Dipole=0.0247276,0.0000006,-0.000002\Quadrupole=0.2524677,0.4016122,-0
 .6540799,0.0000066,-0.0000009,-0.0418812\PG=C01 [X(C5H8)]\\@


 "ANNA, YOU MUSN'T SPEAK OF OXIDIZED MURIATIC ACID
 ANYMORE, FROM NOW ON YOU MUST SAY CHLORINE."
   -- JENS JACOB BERZELIUS, IN 1820, TO HIS COOK, WHO HAD
 COMPLAINED OF THE SMELL OF THE FLASK SHE WAS CLEANING.
 Job cpu time:       0 days  0 hours  0 minutes  8.0 seconds.
 Elapsed time:       0 days  0 hours  0 minutes  1.8 seconds.
 File lengths (MBytes):  RWF=     10 Int=      0 D2E=      0 Chk=      2 Scr=      1
 Normal termination of Gaussian 16 at Wed Jun  2 22:17:14 2021.
 Initial command:
 /Applications/g16/l1.exe "/Applications/g16/Scratch/Gau-20497.inp" -scrdir="/Applications/g16/Scratch/"
 Entering Link 1 = /Applications/g16/l1.exe PID=     20503.
  
 Copyright (c) 1988-2017, Gaussian, Inc.  All Rights Reserved.
  
 This is part of the Gaussian(R) 16 program.  It is based on
 the Gaussian(R) 09 system (copyright 2009, Gaussian, Inc.),
 the Gaussian(R) 03 system (copyright 2003, Gaussian, Inc.),
 the Gaussian(R) 98 system (copyright 1998, Gaussian, Inc.),
 the Gaussian(R) 94 system (copyright 1995, Gaussian, Inc.),
 the Gaussian 92(TM) system (copyright 1992, Gaussian, Inc.),
 the Gaussian 90(TM) system (copyright 1990, Gaussian, Inc.),
 the Gaussian 88(TM) system (copyright 1988, Gaussian, Inc.),
 the Gaussian 86(TM) system (copyright 1986, Carnegie Mellon
 University), and the Gaussian 82(TM) system (copyright 1983,
 Carnegie Mellon University). Gaussian is a federally registered
 trademark of Gaussian, Inc.
  
 This software contains proprietary and confidential information,
 including trade secrets, belonging to Gaussian, Inc.
  
 This software is provided under written license and may be
 used, copied, transmitted, or stored only in accord with that
 written license.
  
 The following legend is applicable only to US Government
 contracts under FAR:
  
                    RESTRICTED RIGHTS LEGEND
  
 Use, reproduction and disclosure by the US Government is
 subject to restrictions as set forth in subparagraphs (a)
 and (c) of the Commercial Computer Software - Restricted
 Rights clause in FAR 52.227-19.
  
 Gaussian, Inc.
 340 Quinnipiac St., Bldg. 40, Wallingford CT 06492
  
  
 ---------------------------------------------------------------
 Warning -- This program may not be used in any manner that
 competes with the business of Gaussian, Inc. or will provide
 assistance to any competitor of Gaussian, Inc.  The licensee
 of this program is prohibited from giving any competitor of
 Gaussian, Inc. access to this program.  By using this program,
 the user acknowledges that Gaussian, Inc. is engaged in the
 business of creating and licensing software in the field of
 computational chemistry and represents and warrants to the
 licensee that it is not a competitor of Gaussian, Inc. and that
 it will not use this program in any manner prohibited above.
 ---------------------------------------------------------------
  

 Cite this work as:
 Gaussian 16, Revision B.01,
 M. J. Frisch, G. W. Trucks, H. B. Schlegel, G. E. Scuseria, 
 M. A. Robb, J. R. Cheeseman, G. Scalmani, V. Barone, 
 G. A. Petersson, H. Nakatsuji, X. Li, M. Caricato, A. V. Marenich, 
 J. Bloino, B. G. Janesko, R. Gomperts, B. Mennucci, H. P. Hratchian, 
 J. V. Ortiz, A. F. Izmaylov, J. L. Sonnenberg, D. Williams-Young, 
 F. Ding, F. Lipparini, F. Egidi, J. Goings, B. Peng, A. Petrone, 
 T. Henderson, D. Ranasinghe, V. G. Zakrzewski, J. Gao, N. Rega, 
 G. Zheng, W. Liang, M. Hada, M. Ehara, K. Toyota, R. Fukuda, 
 J. Hasegawa, M. Ishida, T. Nakajima, Y. Honda, O. Kitao, H. Nakai, 
 T. Vreven, K. Throssell, J. A. Montgomery, Jr., J. E. Peralta, 
 F. Ogliaro, M. J. Bearpark, J. J. Heyd, E. N. Brothers, K. N. Kudin, 
 V. N. Staroverov, T. A. Keith, R. Kobayashi, J. Normand, 
 K. Raghavachari, A. P. Rendell, J. C. Burant, S. S. Iyengar, 
 J. Tomasi, M. Cossi, J. M. Millam, M. Klene, C. Adamo, R. Cammi, 
 J. W. Ochterski, R. L. Martin, K. Morokuma, O. Farkas, 
 J. B. Foresman, and D. J. Fox, Gaussian, Inc., Wallingford CT, 2016.
 
 ******************************************
 Gaussian 16:  EM64M-G16RevB.01 20-Dec-2017
                 2-Jun-2021 
 ******************************************
 %nprocshared=6
 Will use up to    6 processors via shared memory.
 %mem=8GB
 %oldchk=drch_4_1.chk
 %chk=drch_4_2.chk
 Copying data from "drch_4_1.chk" to current chk file "drch_4_2.chk"
 IOpt=  2 FromEx=T IUOpen= 4 IOptOp= 5 NList=   0 IFRang= 0 IUIn= 4 IUOut= 2.
 -------------------------------------------------------
 #p casscf(2,2)/6-31g(d) guess=read pop=no geom=allcheck
 -------------------------------------------------------
 1/29=7,38=1,172=1/1;
 2/12=2,40=1/2;
 3/5=1,6=6,7=1,14=-4,25=1,116=101/1,2,3;
 4/5=1,17=2,18=2,43=1/1,5;
 5/5=2,17=1000000,38=6/10;
 6/7=2,8=2,9=2,10=2,22=-1,28=1,31=1/1;
 99/5=1,9=1/99;
 Leave Link    1 at Wed Jun  2 22:17:14 2021, MaxMem=  1073741824 cpu:               0.1 elap:               0.0
 (Enter /Applications/g16/l101.exe)
 Structure from the checkpoint file:  "drch_4_2.chk"
 -------------------
 Title Card Required
 -------------------
 Charge =  0 Multiplicity = 1
 Z-Matrix found in chk file.
 C,0,1.024872,0.772022,-0.091024
 C,0,1.024868,-0.772027,0.091022
 C,0,-0.408439,-1.174719,-0.078831
 C,0,-1.343203,0.000004,-0.000004
 C,0,-0.40843,1.174721,0.078841
 H,0,1.697516,1.278691,0.615685
 H,0,1.398694,1.037633,-1.096417
 H,0,1.3987,-1.037644,1.096409
 H,0,1.697501,-1.278699,-0.615696
 H,0,-2.022861,0.053956,-0.873123
 H,0,-2.022885,-0.053944,0.873094
 H,0,-0.742327,2.206653,0.11941
 H,0,-0.742342,-2.20665,-0.119391
 Recover connectivity data from disk.
 ITRead=  0  0  0  0  0  0  0  0  0  0  0  0  0
 MicOpt= -1 -1 -1 -1 -1 -1 -1 -1 -1 -1 -1 -1 -1
 NAtoms=     13 NQM=       13 NQMF=       0 NMMI=      0 NMMIF=      0
                NMic=       0 NMicF=      0.
                    Isotopes and Nuclear Properties:
 (Nuclear quadrupole moments (NQMom) in fm**2, nuclear magnetic moments (NMagM)
  in nuclear magnetons)

  Atom         1           2           3           4           5           6           7           8           9          10
 IAtWgt=          12          12          12          12          12           1           1           1           1           1
 AtmWgt=  12.0000000  12.0000000  12.0000000  12.0000000  12.0000000   1.0078250   1.0078250   1.0078250   1.0078250   1.0078250
 NucSpn=           0           0           0           0           0           1           1           1           1           1
 AtZEff=   3.6000000   3.6000000   3.6000000   3.6000000   3.6000000   1.0000000   1.0000000   1.0000000   1.0000000   1.0000000
 NQMom=    0.0000000   0.0000000   0.0000000   0.0000000   0.0000000   0.0000000   0.0000000   0.0000000   0.0000000   0.0000000
 NMagM=    0.0000000   0.0000000   0.0000000   0.0000000   0.0000000   2.7928460   2.7928460   2.7928460   2.7928460   2.7928460
 AtZNuc=   6.0000000   6.0000000   6.0000000   6.0000000   6.0000000   1.0000000   1.0000000   1.0000000   1.0000000   1.0000000

  Atom        11          12          13
 IAtWgt=           1           1           1
 AtmWgt=   1.0078250   1.0078250   1.0078250
 NucSpn=           1           1           1
 AtZEff=   1.0000000   1.0000000   1.0000000
 NQMom=    0.0000000   0.0000000   0.0000000
 NMagM=    2.7928460   2.7928460   2.7928460
 AtZNuc=   1.0000000   1.0000000   1.0000000
 Leave Link  101 at Wed Jun  2 22:17:15 2021, MaxMem=  1073741824 cpu:               0.6 elap:               0.1
 (Enter /Applications/g16/l202.exe)
                          Input orientation:                          
 ---------------------------------------------------------------------
 Center     Atomic      Atomic             Coordinates (Angstroms)
 Number     Number       Type             X           Y           Z
 ---------------------------------------------------------------------
      1          6           0        1.024872    0.772022   -0.091024
      2          6           0        1.024868   -0.772027    0.091022
      3          6           0       -0.408439   -1.174719   -0.078831
      4          6           0       -1.343203    0.000004   -0.000004
      5          6           0       -0.408430    1.174721    0.078841
      6          1           0        1.697516    1.278691    0.615685
      7          1           0        1.398694    1.037633   -1.096417
      8          1           0        1.398700   -1.037644    1.096409
      9          1           0        1.697501   -1.278699   -0.615696
     10          1           0       -2.022861    0.053956   -0.873123
     11          1           0       -2.022885   -0.053944    0.873094
     12          1           0       -0.742327    2.206653    0.119410
     13          1           0       -0.742342   -2.206650   -0.119391
 ---------------------------------------------------------------------
                    Distance matrix (angstroms):
                    1          2          3          4          5
     1  C    0.000000
     2  C    1.554744   0.000000
     3  C    2.417505   1.498459   0.000000
     4  C    2.492404   2.492404   1.503320   0.000000
     5  C    1.498458   2.417503   2.354725   1.503322   0.000000
     6  H    1.099364   2.221074   3.307056   3.355605   2.175780
     7  H    1.105037   2.196503   3.032443   3.129983   2.160028
     8  H    2.196505   1.105037   2.160030   3.129995   3.032445
     9  H    2.221073   1.099364   2.175780   3.355598   3.307053
    10  H    3.227379   3.301587   2.178738   1.107783   2.183744
    11  H    3.301601   3.227395   2.183743   1.107781   2.178743
    12  H    2.285922   3.463570   3.403595   2.290112   1.085365
    13  H    3.463573   2.285924   1.085365   2.290111   3.403596
                    6          7          8          9         10
     6  H    0.000000
     7  H    1.754622   0.000000
     8  H    2.384490   3.019149   0.000000
     9  H    2.838405   2.384486   1.754620   0.000000
    10  H    4.190195   3.567144   4.096062   3.960219   0.000000
    11  H    3.960247   4.096061   3.567181   4.190202   1.749547
    12  H    2.657111   2.725585   4.007990   4.317502   2.694252
    13  H    4.317505   4.007990   2.725584   2.657112   2.705214
                   11         12         13
    11  H    0.000000
    12  H    2.705211   0.000000
    13  H    2.694246   4.419759   0.000000
 Stoichiometry    C5H8
 Framework group  C1[X(C5H8)]
 Deg. of freedom    33
 Full point group                 C1      NOp   1
 RotChk:  IX=0 Diff= 3.36D-15
 Largest Abelian subgroup         C1      NOp   1
 Largest concise Abelian subgroup C1      NOp   1
                         Standard orientation:                         
 ---------------------------------------------------------------------
 Center     Atomic      Atomic             Coordinates (Angstroms)
 Number     Number       Type             X           Y           Z
 ---------------------------------------------------------------------
      1          6           0        1.024873   -0.772021    0.091024
      2          6           0        1.024867    0.772028   -0.091022
      3          6           0       -0.408440    1.174719    0.078831
      4          6           0       -1.343203   -0.000005    0.000004
      5          6           0       -0.408429   -1.174721   -0.078841
      6          1           0        1.697517   -1.278689   -0.615685
      7          1           0        1.398695   -1.037631    1.096417
      8          1           0        1.398699    1.037646   -1.096409
      9          1           0        1.697500    1.278701    0.615696
     10          1           0       -2.022861   -0.053958    0.873123
     11          1           0       -2.022885    0.053942   -0.873094
     12          1           0       -0.742325   -2.206654   -0.119410
     13          1           0       -0.742344    2.206649    0.119391
 ---------------------------------------------------------------------
 Rotational constants (GHZ):           7.4527778           6.7324824           3.8090596
 Leave Link  202 at Wed Jun  2 22:17:15 2021, MaxMem=  1073741824 cpu:               0.0 elap:               0.0
 (Enter /Applications/g16/l301.exe)
 Standard basis: 6-31G(d) (6D, 7F)
 Ernie: Thresh=  0.10000D-02 Tol=  0.10000D-05 Strict=F.
 There are    91 symmetry adapted cartesian basis functions of A   symmetry.
 There are    91 symmetry adapted basis functions of A   symmetry.
    91 basis functions,   172 primitive gaussians,    91 cartesian basis functions
    19 alpha electrons       19 beta electrons
       nuclear repulsion energy       168.7600533234 Hartrees.
 IExCor=    0 DFT=F Ex=HF Corr=None ExCW=0 ScaHFX=  1.000000
 ScaDFX=  1.000000  1.000000  1.000000  1.000000 ScalE2=  1.000000  1.000000
 IRadAn=      5 IRanWt=     -1 IRanGd=            0 ICorTp=0 IEmpDi=  4
 NAtoms=   13 NActive=   13 NUniq=   13 SFac= 1.00D+00 NAtFMM=   60 NAOKFM=F Big=F
 Integral buffers will be    131072 words long.
 Regular integral format.
 Two-electron integral symmetry is turned off.
 Leave Link  301 at Wed Jun  2 22:17:15 2021, MaxMem=  1073741824 cpu:               0.1 elap:               0.0
 (Enter /Applications/g16/l302.exe)
 NPDir=0 NMtPBC=     1 NCelOv=     1 NCel=       1 NClECP=     1 NCelD=      1
         NCelK=      1 NCelE2=     1 NClLst=     1 CellRange=     0.0.
 One-electron integrals computed using PRISM.
 NBasis=    91 RedAO= T EigKep=  3.84D-03  NBF=    91
 NBsUse=    91 1.00D-06 EigRej= -1.00D+00 NBFU=    91
 Leave Link  302 at Wed Jun  2 22:17:15 2021, MaxMem=  1073741824 cpu:               0.5 elap:               0.1
 (Enter /Applications/g16/l303.exe)
 DipDrv:  MaxL=1.
 Leave Link  303 at Wed Jun  2 22:17:15 2021, MaxMem=  1073741824 cpu:               0.1 elap:               0.0
 (Enter /Applications/g16/l401.exe)
 Initial guess from the checkpoint file:  "drch_4_2.chk"
 B after Tr=    -0.000000   -0.000000   -0.000000
         Rot=    1.000000    0.000000    0.000000   -0.000000 Ang=   0.00 deg.
 Guess basis will be translated and rotated to current coordinates.
 BiOrM2:  NumA=      19 NumB=      19.
 Eigenvalues of SAB:
  1.00000000  0.99999999  0.99999999  0.99999931  0.99999911
  0.99999527  0.99994585  0.99990933  0.99988630  0.99986288
  0.99941037  0.99933498  0.99918834  0.99911418  0.99891464
  0.99882782  0.99654186  0.99566035  0.02035462
 BiOrM2:  NumA=      72 NumB=      72.
 Eigenvalues of SAB:
  1.00000000  1.00000000  1.00000000  1.00000000  1.00000000
  1.00000000  1.00000000  1.00000000  1.00000000  1.00000000
  1.00000000  1.00000000  1.00000000  1.00000000  1.00000000
  1.00000000  1.00000000  1.00000000  1.00000000  1.00000000
  1.00000000  1.00000000  1.00000000  1.00000000  1.00000000
  1.00000000  1.00000000  1.00000000  1.00000000  1.00000000
  1.00000000  1.00000000  1.00000000  1.00000000  1.00000000
  1.00000000  1.00000000  1.00000000  1.00000000  1.00000000
  1.00000000  1.00000000  1.00000000  1.00000000  1.00000000
  1.00000000  1.00000000  1.00000000  1.00000000  1.00000000
  1.00000000  1.00000000  1.00000000  1.00000000  0.99999999
  0.99999999  0.99999931  0.99999911  0.99999527  0.99994585
  0.99990933  0.99988630  0.99986288  0.99941037  0.99933498
  0.99918834  0.99911418  0.99891464  0.99882782  0.99654186
  0.99566035  0.02035462
 JPrj=2 DoOrth=T DoCkMO=T.
 Leave Link  401 at Wed Jun  2 22:17:15 2021, MaxMem=  1073741824 cpu:               0.4 elap:               0.1
 (Enter /Applications/g16/l405.exe)
          Truncation Level=               99999
          a=  1          b=  0          c=  1
          a=N/2 - s   b=2s   c=n- (a+b)
          no. active orbitals (n)  2
          no. active ELECTRONS (N)=  2
                                                  IRREPS TO BE RETAINED = 1
                                                  GROUP IRREP. MULT. TABLE
                                                      1
                                                  IRREP. LABELS FOR ORBITALS
                                                   1 1
          BOTTOM WEIGHT=  2     TOP WEIGHT=  4
          Configuration         1 Symmetry 1 10
          Configuration         2 Symmetry 1 ab
          Configuration         3 Symmetry 1 01
          NO OF BASIS FUNCTIONS =         3 NO TO BE DELETED =    0
 CI Matrix Elements calculated here
          NO. OF CONFIGURATIONS IN REFERENCE SPACE =    1
                                   SECONDARY SPACE =    3
                                   TERTIARY SPACE =    3
          NO. OF ORBITALS =    2
          NO. OF ELECTRONS =    2
          NO. OF WEIGHTS =    3
          REFERENCE STATE CONFIGURATIONS ARE:     0
          NO. OF CORE ORBITALS =    0
          OPTION:  NON-DIAGONAL HOLE LINE INTERACTIONS INCLUDED
 Len28=          98 LenMCI=         101.
 Leave Link  405 at Wed Jun  2 22:17:18 2021, MaxMem=  1073741824 cpu:              11.5 elap:               2.8
 (Enter /Applications/g16/l510.exe)
 Enter MCSCF program.
 NBasis=   91 NCore=   18 NVal=    2 NVirt=   71 IFrame=0 Acc=  1.00D-08.
  Memory needed for Incore Integrals:                 9583938
  Integrals KEPT IN MEMORY
 IBUJAK length=                   33488
 Integral file not found: evaluate integrals 
 FoFCou: FMM=F IPFlag=           0 FMFlag=           0 FMFlg1=           0
         NFxFlg=           0 DoJE=F BraDBF=F KetDBF=F FulRan=T
         wScrn=  0.000000 ICntrl=       600 IOpCl=  0 I1Cent=           0 NGrid=           0
         NMat0=    1 NMatS0=      1 NMatT0=    0 NMatD0=    1 NMtDS0=    0 NMtDT0=    0
 Symmetry not used in FoFCou.
 Defining IBUGAM
 2ND ORD PT ENERGY     CV   -0.000235   CU   -0.221091   UV   -0.118454
 TOTAL                    -193.854395
 ITN=  1 MaxIt= 64 E=   -193.5146151622 DE=-1.94D+02 Acc= 1.00D-08 Lan=  0
 ITN=  2 MaxIt= 64 E=   -193.6061551257 DE=-9.15D-02 Acc= 1.00D-08 Lan=  0
 WARNING! : large rotation  I  J  =                       91
                       19
 Step scaled by    0.4377977585731713     
 ITN=  3 MaxIt= 64 E=   -193.6330300868 DE=-2.69D-02 Acc= 1.00D-08 Lan=  0
 ITN=  4 MaxIt= 64 E=   -193.7201167276 DE=-8.71D-02 Acc= 1.00D-08 Lan=  0
 ITN=  5 MaxIt= 64 E=   -193.7331203318 DE=-1.30D-02 Acc= 1.00D-08 Lan=  0
 ITN=  6 MaxIt= 64 E=   -193.7399043465 DE=-6.78D-03 Acc= 1.00D-08 Lan=  0
 ITN=  7 MaxIt= 64 E=   -193.7474227782 DE=-7.52D-03 Acc= 1.00D-08 Lan=  0
 ITN=  8 MaxIt= 64 E=   -193.7521489792 DE=-4.73D-03 Acc= 1.00D-08 Lan=  0
 ITN=  9 MaxIt= 64 E=   -193.7590435883 DE=-6.89D-03 Acc= 1.00D-08 Lan=  0
 ITN= 10 MaxIt= 64 E=   -193.7620871476 DE=-3.04D-03 Acc= 1.00D-08 Lan=  0
 ITN= 11 MaxIt= 64 E=   -193.7636787640 DE=-1.59D-03 Acc= 1.00D-08 Lan=  0
 ITN= 12 MaxIt= 64 E=   -193.7651992894 DE=-1.52D-03 Acc= 1.00D-08 Lan=  0
 ITN= 13 MaxIt= 64 E=   -193.7659810557 DE=-7.82D-04 Acc= 1.00D-08 Lan=  0
 ITN= 14 MaxIt= 64 E=   -193.7667502517 DE=-7.69D-04 Acc= 1.00D-08 Lan=  0
 ITN= 15 MaxIt= 64 E=   -193.7672721188 DE=-5.22D-04 Acc= 1.00D-08 Lan=  0
 ITN= 16 MaxIt= 64 E=   -193.7676214511 DE=-3.49D-04 Acc= 1.00D-08 Lan=  0
 ITN= 17 MaxIt= 64 E=   -193.7677931594 DE=-1.72D-04 Acc= 1.00D-08 Lan=  0
 ITN= 18 MaxIt= 64 E=   -193.7680100889 DE=-2.17D-04 Acc= 1.00D-08 Lan=  0
 ITN= 19 MaxIt= 64 E=   -193.7681734335 DE=-1.63D-04 Acc= 1.00D-08 Lan=  0
 ITN= 20 MaxIt= 64 E=   -193.7682655187 DE=-9.21D-05 Acc= 1.00D-08 Lan=  0
 ITN= 21 MaxIt= 64 E=   -193.7683267372 DE=-6.12D-05 Acc= 1.00D-08 Lan=  0
 ITN= 22 MaxIt= 64 E=   -193.7683669698 DE=-4.02D-05 Acc= 1.00D-08 Lan=  0
 ITN= 23 MaxIt= 64 E=   -193.7684038140 DE=-3.68D-05 Acc= 1.00D-08 Lan=  0
 ITN= 24 MaxIt= 64 E=   -193.7684274052 DE=-2.36D-05 Acc= 1.00D-08 Lan=  0
 ITN= 25 MaxIt= 64 E=   -193.7684397037 DE=-1.23D-05 Acc= 1.00D-08 Lan=  0
 ITN= 26 MaxIt= 64 E=   -193.7684479809 DE=-8.28D-06 Acc= 1.00D-08 Lan=  0
 ITN= 27 MaxIt= 64 E=   -193.7684500180 DE=-2.04D-06 Acc= 1.00D-08 Lan=  0
 ITN= 28 MaxIt= 64 E=   -193.7684476120 DE= 2.41D-06 Acc= 1.00D-08 Lan=  0
 ITN= 29 MaxIt= 64 E=   -193.7684397789 DE= 7.83D-06 Acc= 1.00D-08 Lan=  0
 ITN= 30 MaxIt= 64 E=   -193.7684257341 DE= 1.40D-05 Acc= 1.00D-08 Lan=  0
 ITN= 31 MaxIt= 64 E=   -193.7683978533 DE= 2.79D-05 Acc= 1.00D-08 Lan=  0
 ITN= 32 MaxIt= 64 E=   -193.7683453856 DE= 5.25D-05 Acc= 1.00D-08 Lan=  0
 ITN= 33 MaxIt= 64 E=   -193.7683076562 DE= 3.77D-05 Acc= 1.00D-08 Lan=  0
 ITN= 34 MaxIt= 64 E=   -193.7682111611 DE= 9.65D-05 Acc= 1.00D-08 Lan=  0
 ITN= 35 MaxIt= 64 E=   -193.7680984886 DE= 1.13D-04 Acc= 1.00D-08 Lan=  0
 ITN= 36 MaxIt= 64 E=   -193.7679005719 DE= 1.98D-04 Acc= 1.00D-08 Lan=  0
 ITN= 37 MaxIt= 64 E=   -193.7676983007 DE= 2.02D-04 Acc= 1.00D-08 Lan=  0
 ITN= 38 MaxIt= 64 E=   -193.7673814811 DE= 3.17D-04 Acc= 1.00D-08 Lan=  0
 ITN= 39 MaxIt= 64 E=   -193.7670247192 DE= 3.57D-04 Acc= 1.00D-08 Lan=  0
 ITN= 40 MaxIt= 64 E=   -193.7665362210 DE= 4.88D-04 Acc= 1.00D-08 Lan=  0
 ITN= 41 MaxIt= 64 E=   -193.7667852620 DE=-2.49D-04 Acc= 1.00D-08 Lan=  0
 ITN= 42 MaxIt= 64 E=   -193.7672879956 DE=-5.03D-04 Acc= 1.00D-08 Lan=  0
 ITN= 43 MaxIt= 64 E=   -193.7674586652 DE=-1.71D-04 Acc= 1.00D-08 Lan=  0
 ITN= 44 MaxIt= 64 E=   -193.7676126945 DE=-1.54D-04 Acc= 1.00D-08 Lan=  0
 ITN= 45 MaxIt= 64 E=   -193.7678044220 DE=-1.92D-04 Acc= 1.00D-08 Lan=  0
 ITN= 46 MaxIt= 64 E=   -193.7679576968 DE=-1.53D-04 Acc= 1.00D-08 Lan=  0
 ITN= 47 MaxIt= 64 E=   -193.7678828563 DE= 7.48D-05 Acc= 1.00D-08 Lan=  0
 ITN= 48 MaxIt= 64 E=   -193.7677538561 DE= 1.29D-04 Acc= 1.00D-08 Lan=  0
 ITN= 49 MaxIt= 64 E=   -193.7676205565 DE= 1.33D-04 Acc= 1.00D-08 Lan=  0
 ITN= 50 MaxIt= 64 E=   -193.7672734629 DE= 3.47D-04 Acc= 1.00D-08 Lan=  0
 ITN= 51 MaxIt= 64 E=   -193.7667985325 DE= 4.75D-04 Acc= 1.00D-08 Lan=  0
 ITN= 52 MaxIt= 64 E=   -193.7664883734 DE= 3.10D-04 Acc= 1.00D-08 Lan=  0
 ITN= 53 MaxIt= 64 E=   -193.7661228024 DE= 3.66D-04 Acc= 1.00D-08 Lan=  0
 ITN= 54 MaxIt= 64 E=   -193.7660061749 DE= 1.17D-04 Acc= 1.00D-08 Lan=  0
 ITN= 55 MaxIt= 64 E=   -193.7664059968 DE=-4.00D-04 Acc= 1.00D-08 Lan=  0
 ITN= 56 MaxIt= 64 E=   -193.7668710695 DE=-4.65D-04 Acc= 1.00D-08 Lan=  0
 ITN= 57 MaxIt= 64 E=   -193.7669686972 DE=-9.76D-05 Acc= 1.00D-08 Lan=  0
 ITN= 58 MaxIt= 64 E=   -193.7671162949 DE=-1.48D-04 Acc= 1.00D-08 Lan=  0
 ITN= 59 MaxIt= 64 E=   -193.7675078632 DE=-3.92D-04 Acc= 1.00D-08 Lan=  0
 ITN= 60 MaxIt= 64 E=   -193.7674768427 DE= 3.10D-05 Acc= 1.00D-08 Lan=  0
 ITN= 61 MaxIt= 64 E=   -193.7675065343 DE=-2.97D-05 Acc= 1.00D-08 Lan=  0
 ITN= 62 MaxIt= 64 E=   -193.7674518384 DE= 5.47D-05 Acc= 1.00D-08 Lan=  0
 ITN= 63 MaxIt= 64 E=   -193.7669657975 DE= 4.86D-04 Acc= 1.00D-08 Lan=  0
 ITN= 64 MaxIt= 64 E=   -193.7664863331 DE= 4.79D-04 Acc= 1.00D-08 Lan=  0
 Convergence failure -- run terminated.
 Error termination via Lnk1e in /Applications/g16/l510.exe at Wed Jun  2 22:17:41 2021.
 Job cpu time:       0 days  0 hours  2 minutes 25.1 seconds.
 Elapsed time:       0 days  0 hours  0 minutes 25.9 seconds.
 File lengths (MBytes):  RWF=      6 Int=      0 D2E=      0 Chk=      2 Scr=      1
