 Entering Gaussian System, Link 0=g16
 Initial command:
 /Applications/g16/l1.exe "/Applications/g16/Scratch/Gau-20556.inp" -scrdir="/Applications/g16/Scratch/"
 Entering Link 1 = /Applications/g16/l1.exe PID=     20558.
  
 Copyright (c) 1988-2017, Gaussian, Inc.  All Rights Reserved.
  
 This is part of the Gaussian(R) 16 program.  It is based on
 the Gaussian(R) 09 system (copyright 2009, Gaussian, Inc.),
 the Gaussian(R) 03 system (copyright 2003, Gaussian, Inc.),
 the Gaussian(R) 98 system (copyright 1998, Gaussian, Inc.),
 the Gaussian(R) 94 system (copyright 1995, Gaussian, Inc.),
 the Gaussian 92(TM) system (copyright 1992, Gaussian, Inc.),
 the Gaussian 90(TM) system (copyright 1990, Gaussian, Inc.),
 the Gaussian 88(TM) system (copyright 1988, Gaussian, Inc.),
 the Gaussian 86(TM) system (copyright 1986, Carnegie Mellon
 University), and the Gaussian 82(TM) system (copyright 1983,
 Carnegie Mellon University). Gaussian is a federally registered
 trademark of Gaussian, Inc.
  
 This software contains proprietary and confidential information,
 including trade secrets, belonging to Gaussian, Inc.
  
 This software is provided under written license and may be
 used, copied, transmitted, or stored only in accord with that
 written license.
  
 The following legend is applicable only to US Government
 contracts under FAR:
  
                    RESTRICTED RIGHTS LEGEND
  
 Use, reproduction and disclosure by the US Government is
 subject to restrictions as set forth in subparagraphs (a)
 and (c) of the Commercial Computer Software - Restricted
 Rights clause in FAR 52.227-19.
  
 Gaussian, Inc.
 340 Quinnipiac St., Bldg. 40, Wallingford CT 06492
  
  
 ---------------------------------------------------------------
 Warning -- This program may not be used in any manner that
 competes with the business of Gaussian, Inc. or will provide
 assistance to any competitor of Gaussian, Inc.  The licensee
 of this program is prohibited from giving any competitor of
 Gaussian, Inc. access to this program.  By using this program,
 the user acknowledges that Gaussian, Inc. is engaged in the
 business of creating and licensing software in the field of
 computational chemistry and represents and warrants to the
 licensee that it is not a competitor of Gaussian, Inc. and that
 it will not use this program in any manner prohibited above.
 ---------------------------------------------------------------
  

 Cite this work as:
 Gaussian 16, Revision B.01,
 M. J. Frisch, G. W. Trucks, H. B. Schlegel, G. E. Scuseria, 
 M. A. Robb, J. R. Cheeseman, G. Scalmani, V. Barone, 
 G. A. Petersson, H. Nakatsuji, X. Li, M. Caricato, A. V. Marenich, 
 J. Bloino, B. G. Janesko, R. Gomperts, B. Mennucci, H. P. Hratchian, 
 J. V. Ortiz, A. F. Izmaylov, J. L. Sonnenberg, D. Williams-Young, 
 F. Ding, F. Lipparini, F. Egidi, J. Goings, B. Peng, A. Petrone, 
 T. Henderson, D. Ranasinghe, V. G. Zakrzewski, J. Gao, N. Rega, 
 G. Zheng, W. Liang, M. Hada, M. Ehara, K. Toyota, R. Fukuda, 
 J. Hasegawa, M. Ishida, T. Nakajima, Y. Honda, O. Kitao, H. Nakai, 
 T. Vreven, K. Throssell, J. A. Montgomery, Jr., J. E. Peralta, 
 F. Ogliaro, M. J. Bearpark, J. J. Heyd, E. N. Brothers, K. N. Kudin, 
 V. N. Staroverov, T. A. Keith, R. Kobayashi, J. Normand, 
 K. Raghavachari, A. P. Rendell, J. C. Burant, S. S. Iyengar, 
 J. Tomasi, M. Cossi, J. M. Millam, M. Klene, C. Adamo, R. Cammi, 
 J. W. Ochterski, R. L. Martin, K. Morokuma, O. Farkas, 
 J. B. Foresman, and D. J. Fox, Gaussian, Inc., Wallingford CT, 2016.
 
 ******************************************
 Gaussian 16:  EM64M-G16RevB.01 20-Dec-2017
                 2-Jun-2021 
 ******************************************
 %nprocshared=6
 Will use up to    6 processors via shared memory.
 %mem=8GB
 %chk=drch_6_1.chk
 -------------
 #p rhf/sto-3g
 -------------
 1/38=1,172=1/1;
 2/12=2,17=6,18=5,40=1/2;
 3/6=3,11=1,25=1,30=1,116=1/1,2,3;
 4//1;
 5/5=2,38=5/2;
 6/7=2,8=2,9=2,10=2,28=1/1;
 99/5=1,9=1/99;
 Leave Link    1 at Wed Jun  2 22:25:17 2021, MaxMem=  1073741824 cpu:               1.3 elap:               0.3
 (Enter /Applications/g16/l101.exe)
 -------------------
 Title Card Required
 -------------------
 Symbolic Z-matrix:
 Charge =  0 Multiplicity = 1
 C                     1.02487   0.77202  -0.09102 
 C                     1.02487  -0.77203   0.09102 
 C                    -0.40844  -1.17472  -0.07883 
 C                    -1.3432    0.       0. 
 C                    -0.40843   1.17472   0.07884 
 H                     1.69752   1.27869   0.61569 
 H                     1.39869   1.03763  -1.09642 
 H                     1.3987   -1.03764   1.09641 
 H                     1.6975   -1.2787   -0.6157 
 H                    -2.02286   0.05396  -0.87312 
 H                    -2.02289  -0.05394   0.87309 
 H                    -0.74233   2.20665   0.11941 
 H                    -0.74234  -2.20665  -0.11939 
 
 ITRead=  0  0  0  0  0  0  0  0  0  0  0  0  0
 MicOpt= -1 -1 -1 -1 -1 -1 -1 -1 -1 -1 -1 -1 -1
 NAtoms=     13 NQM=       13 NQMF=       0 NMMI=      0 NMMIF=      0
                NMic=       0 NMicF=      0.
                    Isotopes and Nuclear Properties:
 (Nuclear quadrupole moments (NQMom) in fm**2, nuclear magnetic moments (NMagM)
  in nuclear magnetons)

  Atom         1           2           3           4           5           6           7           8           9          10
 IAtWgt=          12          12          12          12          12           1           1           1           1           1
 AtmWgt=  12.0000000  12.0000000  12.0000000  12.0000000  12.0000000   1.0078250   1.0078250   1.0078250   1.0078250   1.0078250
 NucSpn=           0           0           0           0           0           1           1           1           1           1
 AtZEff=  -0.0000000  -0.0000000  -0.0000000  -0.0000000  -0.0000000  -0.0000000  -0.0000000  -0.0000000  -0.0000000  -0.0000000
 NQMom=    0.0000000   0.0000000   0.0000000   0.0000000   0.0000000   0.0000000   0.0000000   0.0000000   0.0000000   0.0000000
 NMagM=    0.0000000   0.0000000   0.0000000   0.0000000   0.0000000   2.7928460   2.7928460   2.7928460   2.7928460   2.7928460
 AtZNuc=   6.0000000   6.0000000   6.0000000   6.0000000   6.0000000   1.0000000   1.0000000   1.0000000   1.0000000   1.0000000

  Atom        11          12          13
 IAtWgt=           1           1           1
 AtmWgt=   1.0078250   1.0078250   1.0078250
 NucSpn=           1           1           1
 AtZEff=  -0.0000000  -0.0000000  -0.0000000
 NQMom=    0.0000000   0.0000000   0.0000000
 NMagM=    2.7928460   2.7928460   2.7928460
 AtZNuc=   1.0000000   1.0000000   1.0000000
 Leave Link  101 at Wed Jun  2 22:25:18 2021, MaxMem=  1073741824 cpu:               0.7 elap:               0.1
 (Enter /Applications/g16/l202.exe)
                          Input orientation:                          
 ---------------------------------------------------------------------
 Center     Atomic      Atomic             Coordinates (Angstroms)
 Number     Number       Type             X           Y           Z
 ---------------------------------------------------------------------
      1          6           0        1.024872    0.772022   -0.091024
      2          6           0        1.024868   -0.772027    0.091022
      3          6           0       -0.408439   -1.174719   -0.078831
      4          6           0       -1.343203    0.000004   -0.000004
      5          6           0       -0.408430    1.174721    0.078841
      6          1           0        1.697516    1.278691    0.615685
      7          1           0        1.398694    1.037633   -1.096417
      8          1           0        1.398700   -1.037644    1.096409
      9          1           0        1.697501   -1.278699   -0.615696
     10          1           0       -2.022861    0.053956   -0.873123
     11          1           0       -2.022885   -0.053944    0.873094
     12          1           0       -0.742327    2.206653    0.119410
     13          1           0       -0.742342   -2.206650   -0.119391
 ---------------------------------------------------------------------
                    Distance matrix (angstroms):
                    1          2          3          4          5
     1  C    0.000000
     2  C    1.554744   0.000000
     3  C    2.417505   1.498459   0.000000
     4  C    2.492404   2.492404   1.503320   0.000000
     5  C    1.498458   2.417503   2.354725   1.503322   0.000000
     6  H    1.099364   2.221074   3.307056   3.355605   2.175780
     7  H    1.105037   2.196503   3.032443   3.129983   2.160028
     8  H    2.196505   1.105037   2.160030   3.129995   3.032445
     9  H    2.221073   1.099364   2.175780   3.355598   3.307053
    10  H    3.227379   3.301587   2.178738   1.107783   2.183744
    11  H    3.301601   3.227395   2.183743   1.107781   2.178743
    12  H    2.285922   3.463570   3.403595   2.290112   1.085365
    13  H    3.463573   2.285924   1.085365   2.290111   3.403596
                    6          7          8          9         10
     6  H    0.000000
     7  H    1.754622   0.000000
     8  H    2.384490   3.019149   0.000000
     9  H    2.838405   2.384486   1.754620   0.000000
    10  H    4.190195   3.567144   4.096062   3.960219   0.000000
    11  H    3.960247   4.096061   3.567181   4.190202   1.749547
    12  H    2.657111   2.725585   4.007990   4.317502   2.694252
    13  H    4.317505   4.007990   2.725584   2.657112   2.705214
                   11         12         13
    11  H    0.000000
    12  H    2.705211   0.000000
    13  H    2.694246   4.419759   0.000000
 Stoichiometry    C5H8
 Framework group  C1[X(C5H8)]
 Deg. of freedom    33
 Full point group                 C1      NOp   1
 Largest Abelian subgroup         C1      NOp   1
 Largest concise Abelian subgroup C1      NOp   1
                         Standard orientation:                         
 ---------------------------------------------------------------------
 Center     Atomic      Atomic             Coordinates (Angstroms)
 Number     Number       Type             X           Y           Z
 ---------------------------------------------------------------------
      1          6           0        1.024873   -0.772021    0.091024
      2          6           0        1.024867    0.772028   -0.091022
      3          6           0       -0.408440    1.174719    0.078831
      4          6           0       -1.343203   -0.000005    0.000004
      5          6           0       -0.408429   -1.174721   -0.078841
      6          1           0        1.697517   -1.278689   -0.615685
      7          1           0        1.398695   -1.037631    1.096417
      8          1           0        1.398699    1.037646   -1.096409
      9          1           0        1.697500    1.278701    0.615696
     10          1           0       -2.022861   -0.053958    0.873123
     11          1           0       -2.022885    0.053942   -0.873094
     12          1           0       -0.742325   -2.206654   -0.119410
     13          1           0       -0.742344    2.206649    0.119391
 ---------------------------------------------------------------------
 Rotational constants (GHZ):           7.4527778           6.7324824           3.8090596
 Leave Link  202 at Wed Jun  2 22:25:18 2021, MaxMem=  1073741824 cpu:               0.0 elap:               0.0
 (Enter /Applications/g16/l301.exe)
 Standard basis: STO-3G (5D, 7F)
 Ernie: Thresh=  0.10000D-02 Tol=  0.10000D-05 Strict=F.
 There are    33 symmetry adapted cartesian basis functions of A   symmetry.
 There are    33 symmetry adapted basis functions of A   symmetry.
    33 basis functions,    99 primitive gaussians,    33 cartesian basis functions
    19 alpha electrons       19 beta electrons
       nuclear repulsion energy       168.7600533234 Hartrees.
 IExCor=    0 DFT=F Ex=HF Corr=None ExCW=0 ScaHFX=  1.000000
 ScaDFX=  1.000000  1.000000  1.000000  1.000000 ScalE2=  1.000000  1.000000
 IRadAn=      5 IRanWt=     -1 IRanGd=            0 ICorTp=0 IEmpDi=  4
 NAtoms=   13 NActive=   13 NUniq=   13 SFac= 1.00D+00 NAtFMM=   60 NAOKFM=F Big=F
 Integral buffers will be    131072 words long.
 Raffenetti 1 integral format.
 Two-electron integral symmetry is turned on.
 Leave Link  301 at Wed Jun  2 22:25:18 2021, MaxMem=  1073741824 cpu:               0.1 elap:               0.0
 (Enter /Applications/g16/l302.exe)
 NPDir=0 NMtPBC=     1 NCelOv=     1 NCel=       1 NClECP=     1 NCelD=      1
         NCelK=      1 NCelE2=     1 NClLst=     1 CellRange=     0.0.
 One-electron integrals computed using PRISM.
 One-electron integral symmetry used in STVInt
 NBasis=    33 RedAO= T EigKep=  2.08D-01  NBF=    33
 NBsUse=    33 1.00D-06 EigRej= -1.00D+00 NBFU=    33
 Leave Link  302 at Wed Jun  2 22:25:18 2021, MaxMem=  1073741824 cpu:               0.3 elap:               0.1
 (Enter /Applications/g16/l303.exe)
 DipDrv:  MaxL=1.
 Leave Link  303 at Wed Jun  2 22:25:18 2021, MaxMem=  1073741824 cpu:               0.2 elap:               0.0
 (Enter /Applications/g16/l401.exe)
 ExpMin= 1.69D-01 ExpMax= 7.16D+01 ExpMxC= 7.16D+01 IAcc=3 IRadAn=         5 AccDes= 0.00D+00
 Harris functional with IExCor=  205 and IRadAn=       5 diagonalized for initial guess.
 HarFok:  IExCor=  205 AccDes= 0.00D+00 IRadAn=         5 IDoV= 1 UseB2=F ITyADJ=14
 ICtDFT=  3500011 ScaDFX=  1.000000  1.000000  1.000000  1.000000
 FoFCou: FMM=F IPFlag=           0 FMFlag=      100000 FMFlg1=           0
         NFxFlg=           0 DoJE=T BraDBF=F KetDBF=T FulRan=T
         wScrn=  0.000000 ICntrl=       500 IOpCl=  0 I1Cent=   200000004 NGrid=           0
         NMat0=    1 NMatS0=      1 NMatT0=    0 NMatD0=    1 NMtDS0=    0 NMtDT0=    0
 Petite list used in FoFCou.
 Harris En= -191.864816297661    
 JPrj=0 DoOrth=F DoCkMO=F.
 Leave Link  401 at Wed Jun  2 22:25:18 2021, MaxMem=  1073741824 cpu:               1.1 elap:               0.2
 (Enter /Applications/g16/l502.exe)
 Keep R1 ints in memory in canonical form, NReq=981298.
 FoFCou: FMM=F IPFlag=           0 FMFlag=           0 FMFlg1=           0
         NFxFlg=           0 DoJE=F BraDBF=F KetDBF=F FulRan=T
         wScrn=  0.000000 ICntrl=       600 IOpCl=  0 I1Cent=           0 NGrid=           0
         NMat0=    1 NMatS0=    561 NMatT0=    0 NMatD0=    1 NMtDS0=    0 NMtDT0=    0
 Symmetry not used in FoFCou.
 Two-electron integral symmetry not used.
 Closed shell SCF:
 Using DIIS extrapolation, IDIIS=  1040.
 NGot=  1073741824 LenX=  1073580989 LenY=  1073579459
 Requested convergence on RMS density matrix=1.00D-08 within 128 cycles.
 Requested convergence on MAX density matrix=1.00D-06.
 Requested convergence on             energy=1.00D-06.
 No special actions if energy rises.

 Cycle   1  Pass 1  IDiag  1:
 E= -191.283247895575    
 DIIS: error= 4.37D-02 at cycle   1 NSaved=   1.
 NSaved= 1 IEnMin= 1 EnMin= -191.283247895575     IErMin= 1 ErrMin= 4.37D-02
 ErrMax= 4.37D-02  0.00D+00 EMaxC= 1.00D-01 BMatC= 1.18D-01 BMatP= 1.18D-01
 IDIUse=3 WtCom= 5.63D-01 WtEn= 4.37D-01
 Coeff-Com:  0.100D+01
 Coeff-En:   0.100D+01
 Coeff:      0.100D+01
 Gap=     0.193 Goal=   None    Shift=    0.000
 GapD=    0.193 DampG=1.000 DampE=0.500 DampFc=0.5000 IDamp=-1.
 Damping current iteration by 5.00D-01
 RMSDP=1.41D-02 MaxDP=1.03D-01              OVMax= 0.00D+00

 Cycle   2  Pass 1  IDiag  1:
 E= -191.346389858907     Delta-E=       -0.063141963332 Rises=F Damp=T
 DIIS: error= 2.53D-02 at cycle   2 NSaved=   2.
 NSaved= 2 IEnMin= 2 EnMin= -191.346389858907     IErMin= 2 ErrMin= 2.53D-02
 ErrMax= 2.53D-02  0.00D+00 EMaxC= 1.00D-01 BMatC= 2.74D-02 BMatP= 1.18D-01
 IDIUse=3 WtCom= 7.47D-01 WtEn= 2.53D-01
 Coeff-Com: -0.883D+00 0.188D+01
 Coeff-En:   0.000D+00 0.100D+01
 Coeff:     -0.659D+00 0.166D+01
 Gap=     0.202 Goal=   None    Shift=    0.000
 RMSDP=5.60D-03 MaxDP=4.22D-02 DE=-6.31D-02 OVMax= 0.00D+00

 Cycle   3  Pass 1  IDiag  1:
 E= -191.404653309308     Delta-E=       -0.058263450401 Rises=F Damp=F
 DIIS: error= 1.07D-03 at cycle   3 NSaved=   3.
 NSaved= 3 IEnMin= 3 EnMin= -191.404653309308     IErMin= 3 ErrMin= 1.07D-03
 ErrMax= 1.07D-03  0.00D+00 EMaxC= 1.00D-01 BMatC= 3.97D-05 BMatP= 2.74D-02
 IDIUse=3 WtCom= 9.89D-01 WtEn= 1.07D-02
 Coeff-Com:  0.979D-01-0.215D+00 0.112D+01
 Coeff-En:   0.000D+00 0.000D+00 0.100D+01
 Coeff:      0.969D-01-0.212D+00 0.112D+01
 Gap=     0.202 Goal=   None    Shift=    0.000
 RMSDP=2.99D-04 MaxDP=1.71D-03 DE=-5.83D-02 OVMax= 0.00D+00

 Cycle   4  Pass 1  IDiag  1:
 E= -191.404710686444     Delta-E=       -0.000057377135 Rises=F Damp=F
 DIIS: error= 2.14D-04 at cycle   4 NSaved=   4.
 NSaved= 4 IEnMin= 4 EnMin= -191.404710686444     IErMin= 4 ErrMin= 2.14D-04
 ErrMax= 2.14D-04  0.00D+00 EMaxC= 1.00D-01 BMatC= 1.07D-06 BMatP= 3.97D-05
 IDIUse=3 WtCom= 9.98D-01 WtEn= 2.14D-03
 Coeff-Com:  0.258D-02-0.490D-02-0.790D-01 0.108D+01
 Coeff-En:   0.000D+00 0.000D+00 0.000D+00 0.100D+01
 Coeff:      0.258D-02-0.489D-02-0.789D-01 0.108D+01
 Gap=     0.202 Goal=   None    Shift=    0.000
 RMSDP=6.12D-05 MaxDP=4.23D-04 DE=-5.74D-05 OVMax= 0.00D+00

 Cycle   5  Pass 1  IDiag  1:
 E= -191.404713185865     Delta-E=       -0.000002499421 Rises=F Damp=F
 DIIS: error= 5.00D-05 at cycle   5 NSaved=   5.
 NSaved= 5 IEnMin= 5 EnMin= -191.404713185865     IErMin= 5 ErrMin= 5.00D-05
 ErrMax= 5.00D-05  0.00D+00 EMaxC= 1.00D-01 BMatC= 8.18D-08 BMatP= 1.07D-06
 IDIUse=1 WtCom= 1.00D+00 WtEn= 0.00D+00
 Coeff-Com: -0.396D-02 0.880D-02-0.522D-01 0.359D-01 0.101D+01
 Coeff:     -0.396D-02 0.880D-02-0.522D-01 0.359D-01 0.101D+01
 Gap=     0.202 Goal=   None    Shift=    0.000
 RMSDP=2.24D-05 MaxDP=2.97D-04 DE=-2.50D-06 OVMax= 0.00D+00

 Cycle   6  Pass 1  IDiag  1:
 E= -191.404713376374     Delta-E=       -0.000000190509 Rises=F Damp=F
 DIIS: error= 4.10D-05 at cycle   6 NSaved=   6.
 NSaved= 6 IEnMin= 6 EnMin= -191.404713376374     IErMin= 6 ErrMin= 4.10D-05
 ErrMax= 4.10D-05  0.00D+00 EMaxC= 1.00D-01 BMatC= 4.12D-08 BMatP= 8.18D-08
 IDIUse=1 WtCom= 1.00D+00 WtEn= 0.00D+00
 Coeff-Com: -0.203D-02 0.451D-02-0.235D-01-0.202D-01 0.500D+00 0.541D+00
 Coeff:     -0.203D-02 0.451D-02-0.235D-01-0.202D-01 0.500D+00 0.541D+00
 Gap=     0.202 Goal=   None    Shift=    0.000
 RMSDP=1.19D-05 MaxDP=2.27D-04 DE=-1.91D-07 OVMax= 0.00D+00

 Cycle   7  Pass 1  IDiag  1:
 E= -191.404713434466     Delta-E=       -0.000000058092 Rises=F Damp=F
 DIIS: error= 1.85D-05 at cycle   7 NSaved=   7.
 NSaved= 7 IEnMin= 7 EnMin= -191.404713434466     IErMin= 7 ErrMin= 1.85D-05
 ErrMax= 1.85D-05  0.00D+00 EMaxC= 1.00D-01 BMatC= 8.07D-09 BMatP= 4.12D-08
 IDIUse=1 WtCom= 1.00D+00 WtEn= 0.00D+00
 Coeff-Com:  0.148D-02-0.325D-02 0.193D-01-0.233D-01-0.376D+00 0.217D+00
 Coeff-Com:  0.116D+01
 Coeff:      0.148D-02-0.325D-02 0.193D-01-0.233D-01-0.376D+00 0.217D+00
 Coeff:      0.116D+01
 Gap=     0.202 Goal=   None    Shift=    0.000
 RMSDP=7.11D-06 MaxDP=7.98D-05 DE=-5.81D-08 OVMax= 0.00D+00

 Cycle   8  Pass 1  IDiag  1:
 E= -191.404713458945     Delta-E=       -0.000000024479 Rises=F Damp=F
 DIIS: error= 4.88D-06 at cycle   8 NSaved=   8.
 NSaved= 8 IEnMin= 8 EnMin= -191.404713458945     IErMin= 8 ErrMin= 4.88D-06
 ErrMax= 4.88D-06  0.00D+00 EMaxC= 1.00D-01 BMatC= 2.07D-10 BMatP= 8.07D-09
 IDIUse=1 WtCom= 1.00D+00 WtEn= 0.00D+00
 Coeff-Com: -0.633D-03 0.138D-02-0.805D-02 0.117D-01 0.156D+00-0.134D+00
 Coeff-Com: -0.559D+00 0.153D+01
 Coeff:     -0.633D-03 0.138D-02-0.805D-02 0.117D-01 0.156D+00-0.134D+00
 Coeff:     -0.559D+00 0.153D+01
 Gap=     0.202 Goal=   None    Shift=    0.000
 RMSDP=1.81D-06 MaxDP=1.44D-05 DE=-2.45D-08 OVMax= 0.00D+00

 Cycle   9  Pass 1  IDiag  1:
 E= -191.404713460335     Delta-E=       -0.000000001390 Rises=F Damp=F
 DIIS: error= 1.18D-06 at cycle   9 NSaved=   9.
 NSaved= 9 IEnMin= 9 EnMin= -191.404713460335     IErMin= 9 ErrMin= 1.18D-06
 ErrMax= 1.18D-06  0.00D+00 EMaxC= 1.00D-01 BMatC= 1.55D-11 BMatP= 2.07D-10
 IDIUse=1 WtCom= 1.00D+00 WtEn= 0.00D+00
 Coeff-Com:  0.259D-04-0.573D-04 0.368D-03-0.118D-02-0.548D-02 0.962D-02
 Coeff-Com:  0.291D-01-0.289D+00 0.126D+01
 Coeff:      0.259D-04-0.573D-04 0.368D-03-0.118D-02-0.548D-02 0.962D-02
 Coeff:      0.291D-01-0.289D+00 0.126D+01
 Gap=     0.202 Goal=   None    Shift=    0.000
 RMSDP=4.54D-07 MaxDP=3.29D-06 DE=-1.39D-09 OVMax= 0.00D+00

 Cycle  10  Pass 1  IDiag  1:
 E= -191.404713460434     Delta-E=       -0.000000000099 Rises=F Damp=F
 DIIS: error= 4.66D-07 at cycle  10 NSaved=  10.
 NSaved=10 IEnMin=10 EnMin= -191.404713460434     IErMin=10 ErrMin= 4.66D-07
 ErrMax= 4.66D-07  0.00D+00 EMaxC= 1.00D-01 BMatC= 2.27D-12 BMatP= 1.55D-11
 IDIUse=1 WtCom= 1.00D+00 WtEn= 0.00D+00
 Coeff-Com:  0.992D-04-0.216D-03 0.126D-02-0.177D-02-0.241D-01 0.200D-01
 Coeff-Com:  0.868D-01-0.214D+00-0.101D+00 0.123D+01
 Coeff:      0.992D-04-0.216D-03 0.126D-02-0.177D-02-0.241D-01 0.200D-01
 Coeff:      0.868D-01-0.214D+00-0.101D+00 0.123D+01
 Gap=     0.202 Goal=   None    Shift=    0.000
 RMSDP=1.80D-07 MaxDP=1.38D-06 DE=-9.89D-11 OVMax= 0.00D+00

 Cycle  11  Pass 1  IDiag  1:
 E= -191.404713460445     Delta-E=       -0.000000000011 Rises=F Damp=F
 DIIS: error= 1.38D-07 at cycle  11 NSaved=  11.
 NSaved=11 IEnMin=11 EnMin= -191.404713460445     IErMin=11 ErrMin= 1.38D-07
 ErrMax= 1.38D-07  0.00D+00 EMaxC= 1.00D-01 BMatC= 2.27D-13 BMatP= 2.27D-12
 IDIUse=1 WtCom= 1.00D+00 WtEn= 0.00D+00
 Coeff-Com: -0.506D-04 0.111D-03-0.648D-03 0.101D-02 0.121D-01-0.113D-01
 Coeff-Com: -0.445D-01 0.137D+00-0.607D-01-0.690D+00 0.166D+01
 Coeff:     -0.506D-04 0.111D-03-0.648D-03 0.101D-02 0.121D-01-0.113D-01
 Coeff:     -0.445D-01 0.137D+00-0.607D-01-0.690D+00 0.166D+01
 Gap=     0.202 Goal=   None    Shift=    0.000
 RMSDP=7.01D-08 MaxDP=6.93D-07 DE=-1.14D-11 OVMax= 0.00D+00

 Cycle  12  Pass 1  IDiag  1:
 E= -191.404713460447     Delta-E=       -0.000000000002 Rises=F Damp=F
 DIIS: error= 2.07D-08 at cycle  12 NSaved=  12.
 NSaved=12 IEnMin=12 EnMin= -191.404713460447     IErMin=12 ErrMin= 2.07D-08
 ErrMax= 2.07D-08  0.00D+00 EMaxC= 1.00D-01 BMatC= 1.21D-14 BMatP= 2.27D-13
 IDIUse=1 WtCom= 1.00D+00 WtEn= 0.00D+00
 Coeff-Com:  0.351D-05-0.771D-05 0.477D-04-0.988D-04-0.816D-03 0.957D-03
 Coeff-Com:  0.390D-02-0.192D-01 0.233D-01 0.131D+00-0.529D+00 0.139D+01
 Coeff:      0.351D-05-0.771D-05 0.477D-04-0.988D-04-0.816D-03 0.957D-03
 Coeff:      0.390D-02-0.192D-01 0.233D-01 0.131D+00-0.529D+00 0.139D+01
 Gap=     0.202 Goal=   None    Shift=    0.000
 RMSDP=1.25D-08 MaxDP=1.17D-07 DE=-1.88D-12 OVMax= 0.00D+00

 Cycle  13  Pass 1  IDiag  1:
 E= -191.404713460448     Delta-E=       -0.000000000001 Rises=F Damp=F
 DIIS: error= 5.95D-09 at cycle  13 NSaved=  13.
 NSaved=13 IEnMin=13 EnMin= -191.404713460448     IErMin=13 ErrMin= 5.95D-09
 ErrMax= 5.95D-09  0.00D+00 EMaxC= 1.00D-01 BMatC= 1.26D-15 BMatP= 1.21D-14
 IDIUse=1 WtCom= 1.00D+00 WtEn= 0.00D+00
 Coeff-Com:  0.835D-08 0.128D-07-0.152D-05 0.124D-04 0.944D-05-0.228D-03
 Coeff-Com: -0.161D-03 0.390D-02-0.764D-02-0.328D-01 0.158D+00-0.538D+00
 Coeff-Com:  0.142D+01
 Coeff:      0.835D-08 0.128D-07-0.152D-05 0.124D-04 0.944D-05-0.228D-03
 Coeff:     -0.161D-03 0.390D-02-0.764D-02-0.328D-01 0.158D+00-0.538D+00
 Coeff:      0.142D+01
 Gap=     0.202 Goal=   None    Shift=    0.000
 RMSDP=2.32D-09 MaxDP=2.14D-08 DE=-7.39D-13 OVMax= 0.00D+00

 SCF Done:  E(RHF) =  -191.404713460     A.U. after   13 cycles
            NFock= 13  Conv=0.23D-08     -V/T= 2.0065
 KE= 1.901611680938D+02 PE=-7.839248206126D+02 EE= 2.335988857349D+02
 Leave Link  502 at Wed Jun  2 22:25:18 2021, MaxMem=  1073741824 cpu:               0.9 elap:               0.2
 (Enter /Applications/g16/l601.exe)
 Copying SCF densities to generalized density rwf, IOpCl= 0 IROHF=0.

 **********************************************************************

            Population analysis using the SCF Density.

 **********************************************************************

 Orbital symmetries:
       Occupied  (A) (A) (A) (A) (A) (A) (A) (A) (A) (A) (A) (A)
                 (A) (A) (A) (A) (A) (A) (A)
       Virtual   (A) (A) (A) (A) (A) (A) (A) (A) (A) (A) (A) (A)
                 (A) (A)
 The electronic state is 1-A.
 Alpha  occ. eigenvalues --  -11.04574 -11.03165 -11.03132 -10.96541 -10.96521
 Alpha  occ. eigenvalues --   -1.05187  -0.92126  -0.87380  -0.70590  -0.69499
 Alpha  occ. eigenvalues --   -0.60835  -0.57793  -0.52285  -0.45968  -0.44645
 Alpha  occ. eigenvalues --   -0.44322  -0.43246  -0.42434  -0.08052
 Alpha virt. eigenvalues --    0.12110   0.59793   0.63651   0.63857   0.64341
 Alpha virt. eigenvalues --    0.69654   0.70011   0.71704   0.77648   0.77828
 Alpha virt. eigenvalues --    0.80896   0.83436   0.90477   0.92675
          Condensed to atoms (all electrons):
               1          2          3          4          5          6
     1  C    4.734764   0.359842  -0.033036  -0.035143   0.395108   0.377963
     2  C    0.359842   4.734765   0.395107  -0.035143  -0.033036  -0.018557
     3  C   -0.033036   0.395107   5.043068   0.400025  -0.064832   0.001478
     4  C   -0.035143  -0.035143   0.400025   4.753064   0.400024   0.001134
     5  C    0.395108  -0.033036  -0.064832   0.400024   5.043069  -0.021561
     6  H    0.377963  -0.018557   0.001478   0.001134  -0.021561   0.637746
     7  H    0.367965  -0.021325   0.003051   0.000558  -0.024703  -0.026259
     8  H   -0.021325   0.367965  -0.024702   0.000558   0.003051  -0.007332
     9  H   -0.018557   0.377963  -0.021561   0.001134   0.001478   0.001586
    10  H    0.000840   0.001014  -0.011529   0.356110  -0.011944   0.000013
    11  H    0.001014   0.000840  -0.011944   0.356111  -0.011529  -0.000092
    12  H   -0.020852   0.001188   0.001294  -0.021326   0.387966  -0.000940
    13  H    0.001188  -0.020852   0.387966  -0.021326   0.001294  -0.000022
               7          8          9         10         11         12
     1  C    0.367965  -0.021325  -0.018557   0.000840   0.001014  -0.020852
     2  C   -0.021325   0.367965   0.377963   0.001014   0.000840   0.001188
     3  C    0.003051  -0.024702  -0.021561  -0.011529  -0.011944   0.001294
     4  C    0.000558   0.000558   0.001134   0.356110   0.356111  -0.021326
     5  C   -0.024703   0.003051   0.001478  -0.011944  -0.011529   0.387966
     6  H   -0.026259  -0.007332   0.001586   0.000013  -0.000092  -0.000940
     7  H    0.657208   0.002525  -0.007332  -0.000203   0.000032  -0.000383
     8  H    0.002525   0.657207  -0.026259   0.000032  -0.000203  -0.000036
     9  H   -0.007332  -0.026259   0.637747  -0.000092   0.000013  -0.000022
    10  H   -0.000203   0.000032  -0.000092   0.569987  -0.012844  -0.000607
    11  H    0.000032  -0.000203   0.000013  -0.012844   0.569988  -0.000696
    12  H   -0.000383  -0.000036  -0.000022  -0.000607  -0.000696   0.616052
    13  H   -0.000036  -0.000383  -0.000940  -0.000696  -0.000607  -0.000024
              13
     1  C    0.001188
     2  C   -0.020852
     3  C    0.387966
     4  C   -0.021326
     5  C    0.001294
     6  H   -0.000022
     7  H   -0.000036
     8  H   -0.000383
     9  H   -0.000940
    10  H   -0.000696
    11  H   -0.000607
    12  H   -0.000024
    13  H    0.616052
 Mulliken charges:
               1
     1  C   -0.109771
     2  C   -0.109771
     3  C   -0.064384
     4  C   -0.155778
     5  C   -0.064385
     6  H    0.054842
     7  H    0.048899
     8  H    0.048900
     9  H    0.054842
    10  H    0.109919
    11  H    0.109917
    12  H    0.038386
    13  H    0.038386
 Sum of Mulliken charges =  -0.00000
 Mulliken charges with hydrogens summed into heavy atoms:
               1
     1  C   -0.006030
     2  C   -0.006030
     3  C   -0.025998
     4  C    0.064058
     5  C   -0.026000
 Electronic spatial extent (au):  <R**2>=            380.2897
 Charge=             -0.0000 electrons
 Dipole moment (field-independent basis, Debye):
    X=             -0.7695    Y=              0.0000    Z=              0.0000  Tot=              0.7695
 Quadrupole moment (field-independent basis, Debye-Ang):
   XX=            -27.4415   YY=            -30.7596   ZZ=            -29.8385
   XY=              0.0000   XZ=             -0.0000   YZ=             -0.1339
 Traceless Quadrupole moment (field-independent basis, Debye-Ang):
   XX=              1.9050   YY=             -1.4131   ZZ=             -0.4920
   XY=              0.0000   XZ=             -0.0000   YZ=             -0.1339
 Octapole moment (field-independent basis, Debye-Ang**2):
  XXX=             -5.7687  YYY=              0.0000  ZZZ=              0.0001  XYY=              0.0557
  XXY=             -0.0000  XXZ=              0.0000  XZZ=             -0.6002  YZZ=              0.0000
  YYZ=             -0.0000  XYZ=              0.3748
 Hexadecapole moment (field-independent basis, Debye-Ang**3):
 XXXX=           -221.6603 YYYY=           -203.5439 ZZZZ=            -45.3123 XXXY=              0.0000
 XXXZ=             -0.0001 YYYX=             -0.0000 YYYZ=              0.8913 ZZZX=             -0.0001
 ZZZY=             -1.0334 XXYY=            -73.1726 XXZZ=            -41.2388 YYZZ=            -43.7379
 XXYZ=              0.5731 YYXZ=              0.0000 ZZXY=              0.0000
 N-N= 1.687600533234D+02 E-N=-7.839248206241D+02  KE= 1.901611680938D+02
 No NMR shielding tensors so no spin-rotation constants.
 Leave Link  601 at Wed Jun  2 22:25:18 2021, MaxMem=  1073741824 cpu:               0.4 elap:               0.1
 (Enter /Applications/g16/l9999.exe)
 1\1\GINC-MAC-MINI\SP\RHF\STO-3G\C5H8\TETSU\02-Jun-2021\0\\#p rhf/sto-3
 g\\Title Card Required\\0,1\C,0,1.024872,0.772022,-0.091024\C,0,1.0248
 68,-0.772027,0.091022\C,0,-0.408439,-1.174719,-0.078831\C,0,-1.343203,
 0.000004,-0.000004\C,0,-0.40843,1.174721,0.078841\H,0,1.697516,1.27869
 1,0.615685\H,0,1.398694,1.037633,-1.096417\H,0,1.3987,-1.037644,1.0964
 09\H,0,1.697501,-1.278699,-0.615696\H,0,-2.022861,0.053956,-0.873123\H
 ,0,-2.022885,-0.053944,0.873094\H,0,-0.742327,2.206653,0.11941\H,0,-0.
 742342,-2.20665,-0.119391\\Version=EM64M-G16RevB.01\State=1-A\HF=-191.
 4047135\RMSD=2.322e-09\Dipole=-0.3027304,-0.0000058,-0.0000139\Quadrup
 ole=1.4163382,-1.0505776,-0.3657605,-0.0000016,0.0000355,-0.0995225\PG
 =C01 [X(C5H8)]\\@


 IF YOU WISH TO UNDERSTAND THE FRAGRANCE OF THE ROSE, 
 OR THE TENACITY OF THE OAK; 
 IF YOU ARE NOT SATISFIED UNTIL YOU KNOW THE SECRET PATHS 
 BY WHICH THE SUNSHINE AND THE AIR ACHIEVE THESE WONDERS; 
 IF YOU WISH TO SEE THE PATTERN WHICH UNDERLIES ONE LARGE FIELD OF 
 HUMAN EXPERIENCE AND HUMAN MEASUREMENT, THEN TAKE UP CHEMISTRY.

                                         -- C. A. COULSON, 1973.
 Job cpu time:       0 days  0 hours  0 minutes  5.2 seconds.
 Elapsed time:       0 days  0 hours  0 minutes  1.1 seconds.
 File lengths (MBytes):  RWF=      6 Int=      0 D2E=      0 Chk=      1 Scr=      1
 Normal termination of Gaussian 16 at Wed Jun  2 22:25:18 2021.
 Initial command:
 /Applications/g16/l1.exe "/Applications/g16/Scratch/Gau-20556.inp" -scrdir="/Applications/g16/Scratch/"
 Entering Link 1 = /Applications/g16/l1.exe PID=     20559.
  
 Copyright (c) 1988-2017, Gaussian, Inc.  All Rights Reserved.
  
 This is part of the Gaussian(R) 16 program.  It is based on
 the Gaussian(R) 09 system (copyright 2009, Gaussian, Inc.),
 the Gaussian(R) 03 system (copyright 2003, Gaussian, Inc.),
 the Gaussian(R) 98 system (copyright 1998, Gaussian, Inc.),
 the Gaussian(R) 94 system (copyright 1995, Gaussian, Inc.),
 the Gaussian 92(TM) system (copyright 1992, Gaussian, Inc.),
 the Gaussian 90(TM) system (copyright 1990, Gaussian, Inc.),
 the Gaussian 88(TM) system (copyright 1988, Gaussian, Inc.),
 the Gaussian 86(TM) system (copyright 1986, Carnegie Mellon
 University), and the Gaussian 82(TM) system (copyright 1983,
 Carnegie Mellon University). Gaussian is a federally registered
 trademark of Gaussian, Inc.
  
 This software contains proprietary and confidential information,
 including trade secrets, belonging to Gaussian, Inc.
  
 This software is provided under written license and may be
 used, copied, transmitted, or stored only in accord with that
 written license.
  
 The following legend is applicable only to US Government
 contracts under FAR:
  
                    RESTRICTED RIGHTS LEGEND
  
 Use, reproduction and disclosure by the US Government is
 subject to restrictions as set forth in subparagraphs (a)
 and (c) of the Commercial Computer Software - Restricted
 Rights clause in FAR 52.227-19.
  
 Gaussian, Inc.
 340 Quinnipiac St., Bldg. 40, Wallingford CT 06492
  
  
 ---------------------------------------------------------------
 Warning -- This program may not be used in any manner that
 competes with the business of Gaussian, Inc. or will provide
 assistance to any competitor of Gaussian, Inc.  The licensee
 of this program is prohibited from giving any competitor of
 Gaussian, Inc. access to this program.  By using this program,
 the user acknowledges that Gaussian, Inc. is engaged in the
 business of creating and licensing software in the field of
 computational chemistry and represents and warrants to the
 licensee that it is not a competitor of Gaussian, Inc. and that
 it will not use this program in any manner prohibited above.
 ---------------------------------------------------------------
  

 Cite this work as:
 Gaussian 16, Revision B.01,
 M. J. Frisch, G. W. Trucks, H. B. Schlegel, G. E. Scuseria, 
 M. A. Robb, J. R. Cheeseman, G. Scalmani, V. Barone, 
 G. A. Petersson, H. Nakatsuji, X. Li, M. Caricato, A. V. Marenich, 
 J. Bloino, B. G. Janesko, R. Gomperts, B. Mennucci, H. P. Hratchian, 
 J. V. Ortiz, A. F. Izmaylov, J. L. Sonnenberg, D. Williams-Young, 
 F. Ding, F. Lipparini, F. Egidi, J. Goings, B. Peng, A. Petrone, 
 T. Henderson, D. Ranasinghe, V. G. Zakrzewski, J. Gao, N. Rega, 
 G. Zheng, W. Liang, M. Hada, M. Ehara, K. Toyota, R. Fukuda, 
 J. Hasegawa, M. Ishida, T. Nakajima, Y. Honda, O. Kitao, H. Nakai, 
 T. Vreven, K. Throssell, J. A. Montgomery, Jr., J. E. Peralta, 
 F. Ogliaro, M. J. Bearpark, J. J. Heyd, E. N. Brothers, K. N. Kudin, 
 V. N. Staroverov, T. A. Keith, R. Kobayashi, J. Normand, 
 K. Raghavachari, A. P. Rendell, J. C. Burant, S. S. Iyengar, 
 J. Tomasi, M. Cossi, J. M. Millam, M. Klene, C. Adamo, R. Cammi, 
 J. W. Ochterski, R. L. Martin, K. Morokuma, O. Farkas, 
 J. B. Foresman, and D. J. Fox, Gaussian, Inc., Wallingford CT, 2016.
 
 ******************************************
 Gaussian 16:  EM64M-G16RevB.01 20-Dec-2017
                 2-Jun-2021 
 ******************************************
 %nprocshared=6
 Will use up to    6 processors via shared memory.
 %mem=8GB
 %oldchk=drch_6_1.chk
 %chk=drch_6_2.chk
 Copying data from "drch_6_1.chk" to current chk file "drch_6_2.chk"
 IOpt=  2 FromEx=T IUOpen= 4 IOptOp= 5 NList=   0 IFRang= 0 IUIn= 4 IUOut= 2.
 -----------------------------------------------------
 #p casscf(2,2)/sto-3g guess=read pop=no geom=allcheck
 -----------------------------------------------------
 1/29=7,38=1,172=1/1;
 2/12=2,40=1/2;
 3/6=3,14=-4,25=1,116=101/1,2,3;
 4/5=1,17=2,18=2,43=1/1,5;
 5/5=2,17=1000000,38=6/10;
 6/7=2,8=2,9=2,10=2,22=-1,28=1,31=1/1;
 99/5=1,9=1/99;
 Leave Link    1 at Wed Jun  2 22:25:18 2021, MaxMem=  1073741824 cpu:               0.1 elap:               0.0
 (Enter /Applications/g16/l101.exe)
 Structure from the checkpoint file:  "drch_6_2.chk"
 -------------------
 Title Card Required
 -------------------
 Charge =  0 Multiplicity = 1
 Z-Matrix found in chk file.
 C,0,1.024872,0.772022,-0.091024
 C,0,1.024868,-0.772027,0.091022
 C,0,-0.408439,-1.174719,-0.078831
 C,0,-1.343203,0.000004,-0.000004
 C,0,-0.40843,1.174721,0.078841
 H,0,1.697516,1.278691,0.615685
 H,0,1.398694,1.037633,-1.096417
 H,0,1.3987,-1.037644,1.096409
 H,0,1.697501,-1.278699,-0.615696
 H,0,-2.022861,0.053956,-0.873123
 H,0,-2.022885,-0.053944,0.873094
 H,0,-0.742327,2.206653,0.11941
 H,0,-0.742342,-2.20665,-0.119391
 Recover connectivity data from disk.
 ITRead=  0  0  0  0  0  0  0  0  0  0  0  0  0
 MicOpt= -1 -1 -1 -1 -1 -1 -1 -1 -1 -1 -1 -1 -1
 NAtoms=     13 NQM=       13 NQMF=       0 NMMI=      0 NMMIF=      0
                NMic=       0 NMicF=      0.
                    Isotopes and Nuclear Properties:
 (Nuclear quadrupole moments (NQMom) in fm**2, nuclear magnetic moments (NMagM)
  in nuclear magnetons)

  Atom         1           2           3           4           5           6           7           8           9          10
 IAtWgt=          12          12          12          12          12           1           1           1           1           1
 AtmWgt=  12.0000000  12.0000000  12.0000000  12.0000000  12.0000000   1.0078250   1.0078250   1.0078250   1.0078250   1.0078250
 NucSpn=           0           0           0           0           0           1           1           1           1           1
 AtZEff=   3.6000000   3.6000000   3.6000000   3.6000000   3.6000000   1.0000000   1.0000000   1.0000000   1.0000000   1.0000000
 NQMom=    0.0000000   0.0000000   0.0000000   0.0000000   0.0000000   0.0000000   0.0000000   0.0000000   0.0000000   0.0000000
 NMagM=    0.0000000   0.0000000   0.0000000   0.0000000   0.0000000   2.7928460   2.7928460   2.7928460   2.7928460   2.7928460
 AtZNuc=   6.0000000   6.0000000   6.0000000   6.0000000   6.0000000   1.0000000   1.0000000   1.0000000   1.0000000   1.0000000

  Atom        11          12          13
 IAtWgt=           1           1           1
 AtmWgt=   1.0078250   1.0078250   1.0078250
 NucSpn=           1           1           1
 AtZEff=   1.0000000   1.0000000   1.0000000
 NQMom=    0.0000000   0.0000000   0.0000000
 NMagM=    2.7928460   2.7928460   2.7928460
 AtZNuc=   1.0000000   1.0000000   1.0000000
 Leave Link  101 at Wed Jun  2 22:25:19 2021, MaxMem=  1073741824 cpu:               0.7 elap:               0.1
 (Enter /Applications/g16/l202.exe)
                          Input orientation:                          
 ---------------------------------------------------------------------
 Center     Atomic      Atomic             Coordinates (Angstroms)
 Number     Number       Type             X           Y           Z
 ---------------------------------------------------------------------
      1          6           0        1.024872    0.772022   -0.091024
      2          6           0        1.024868   -0.772027    0.091022
      3          6           0       -0.408439   -1.174719   -0.078831
      4          6           0       -1.343203    0.000004   -0.000004
      5          6           0       -0.408430    1.174721    0.078841
      6          1           0        1.697516    1.278691    0.615685
      7          1           0        1.398694    1.037633   -1.096417
      8          1           0        1.398700   -1.037644    1.096409
      9          1           0        1.697501   -1.278699   -0.615696
     10          1           0       -2.022861    0.053956   -0.873123
     11          1           0       -2.022885   -0.053944    0.873094
     12          1           0       -0.742327    2.206653    0.119410
     13          1           0       -0.742342   -2.206650   -0.119391
 ---------------------------------------------------------------------
                    Distance matrix (angstroms):
                    1          2          3          4          5
     1  C    0.000000
     2  C    1.554744   0.000000
     3  C    2.417505   1.498459   0.000000
     4  C    2.492404   2.492404   1.503320   0.000000
     5  C    1.498458   2.417503   2.354725   1.503322   0.000000
     6  H    1.099364   2.221074   3.307056   3.355605   2.175780
     7  H    1.105037   2.196503   3.032443   3.129983   2.160028
     8  H    2.196505   1.105037   2.160030   3.129995   3.032445
     9  H    2.221073   1.099364   2.175780   3.355598   3.307053
    10  H    3.227379   3.301587   2.178738   1.107783   2.183744
    11  H    3.301601   3.227395   2.183743   1.107781   2.178743
    12  H    2.285922   3.463570   3.403595   2.290112   1.085365
    13  H    3.463573   2.285924   1.085365   2.290111   3.403596
                    6          7          8          9         10
     6  H    0.000000
     7  H    1.754622   0.000000
     8  H    2.384490   3.019149   0.000000
     9  H    2.838405   2.384486   1.754620   0.000000
    10  H    4.190195   3.567144   4.096062   3.960219   0.000000
    11  H    3.960247   4.096061   3.567181   4.190202   1.749547
    12  H    2.657111   2.725585   4.007990   4.317502   2.694252
    13  H    4.317505   4.007990   2.725584   2.657112   2.705214
                   11         12         13
    11  H    0.000000
    12  H    2.705211   0.000000
    13  H    2.694246   4.419759   0.000000
 Stoichiometry    C5H8
 Framework group  C1[X(C5H8)]
 Deg. of freedom    33
 Full point group                 C1      NOp   1
 RotChk:  IX=0 Diff= 3.36D-15
 Largest Abelian subgroup         C1      NOp   1
 Largest concise Abelian subgroup C1      NOp   1
                         Standard orientation:                         
 ---------------------------------------------------------------------
 Center     Atomic      Atomic             Coordinates (Angstroms)
 Number     Number       Type             X           Y           Z
 ---------------------------------------------------------------------
      1          6           0        1.024873   -0.772021    0.091024
      2          6           0        1.024867    0.772028   -0.091022
      3          6           0       -0.408440    1.174719    0.078831
      4          6           0       -1.343203   -0.000005    0.000004
      5          6           0       -0.408429   -1.174721   -0.078841
      6          1           0        1.697517   -1.278689   -0.615685
      7          1           0        1.398695   -1.037631    1.096417
      8          1           0        1.398699    1.037646   -1.096409
      9          1           0        1.697500    1.278701    0.615696
     10          1           0       -2.022861   -0.053958    0.873123
     11          1           0       -2.022885    0.053942   -0.873094
     12          1           0       -0.742325   -2.206654   -0.119410
     13          1           0       -0.742344    2.206649    0.119391
 ---------------------------------------------------------------------
 Rotational constants (GHZ):           7.4527778           6.7324824           3.8090596
 Leave Link  202 at Wed Jun  2 22:25:19 2021, MaxMem=  1073741824 cpu:               0.0 elap:               0.0
 (Enter /Applications/g16/l301.exe)
 Standard basis: STO-3G (5D, 7F)
 Ernie: Thresh=  0.10000D-02 Tol=  0.10000D-05 Strict=F.
 There are    33 symmetry adapted cartesian basis functions of A   symmetry.
 There are    33 symmetry adapted basis functions of A   symmetry.
    33 basis functions,    99 primitive gaussians,    33 cartesian basis functions
    19 alpha electrons       19 beta electrons
       nuclear repulsion energy       168.7600533234 Hartrees.
 IExCor=    0 DFT=F Ex=HF Corr=None ExCW=0 ScaHFX=  1.000000
 ScaDFX=  1.000000  1.000000  1.000000  1.000000 ScalE2=  1.000000  1.000000
 IRadAn=      5 IRanWt=     -1 IRanGd=            0 ICorTp=0 IEmpDi=  4
 NAtoms=   13 NActive=   13 NUniq=   13 SFac= 1.00D+00 NAtFMM=   60 NAOKFM=F Big=F
 Integral buffers will be    131072 words long.
 Regular integral format.
 Two-electron integral symmetry is turned off.
 Leave Link  301 at Wed Jun  2 22:25:19 2021, MaxMem=  1073741824 cpu:               0.2 elap:               0.0
 (Enter /Applications/g16/l302.exe)
 NPDir=0 NMtPBC=     1 NCelOv=     1 NCel=       1 NClECP=     1 NCelD=      1
         NCelK=      1 NCelE2=     1 NClLst=     1 CellRange=     0.0.
 One-electron integrals computed using PRISM.
 NBasis=    33 RedAO= T EigKep=  2.08D-01  NBF=    33
 NBsUse=    33 1.00D-06 EigRej= -1.00D+00 NBFU=    33
 Leave Link  302 at Wed Jun  2 22:25:19 2021, MaxMem=  1073741824 cpu:               0.4 elap:               0.1
 (Enter /Applications/g16/l303.exe)
 DipDrv:  MaxL=1.
 Leave Link  303 at Wed Jun  2 22:25:19 2021, MaxMem=  1073741824 cpu:               0.1 elap:               0.0
 (Enter /Applications/g16/l401.exe)
 Initial guess from the checkpoint file:  "drch_6_2.chk"
 B after Tr=    -0.000000   -0.000000   -0.000000
         Rot=    1.000000    0.000000    0.000000   -0.000000 Ang=   0.00 deg.
 Guess basis will be translated and rotated to current coordinates.
 JPrj=2 DoOrth=T DoCkMO=T.
 Leave Link  401 at Wed Jun  2 22:25:19 2021, MaxMem=  1073741824 cpu:               0.3 elap:               0.1
 (Enter /Applications/g16/l405.exe)
          Truncation Level=               99999
          a=  1          b=  0          c=  1
          a=N/2 - s   b=2s   c=n- (a+b)
          no. active orbitals (n)  2
          no. active ELECTRONS (N)=  2
                                                  IRREPS TO BE RETAINED = 1
                                                  GROUP IRREP. MULT. TABLE
                                                      1
                                                  IRREP. LABELS FOR ORBITALS
                                                   1 1
          BOTTOM WEIGHT=  2     TOP WEIGHT=  4
          Configuration         1 Symmetry 1 10
          Configuration         2 Symmetry 1 ab
          Configuration         3 Symmetry 1 01
          NO OF BASIS FUNCTIONS =         3 NO TO BE DELETED =    0
 CI Matrix Elements calculated here
          NO. OF CONFIGURATIONS IN REFERENCE SPACE =    1
                                   SECONDARY SPACE =    3
                                   TERTIARY SPACE =    3
          NO. OF ORBITALS =    2
          NO. OF ELECTRONS =    2
          NO. OF WEIGHTS =    3
          REFERENCE STATE CONFIGURATIONS ARE:     0
          NO. OF CORE ORBITALS =    0
          OPTION:  NON-DIAGONAL HOLE LINE INTERACTIONS INCLUDED
 Len28=          98 LenMCI=         101.
 Leave Link  405 at Wed Jun  2 22:25:22 2021, MaxMem=  1073741824 cpu:              10.9 elap:               3.0
 (Enter /Applications/g16/l510.exe)
 Enter MCSCF program.
 NBasis=   33 NCore=   18 NVal=    2 NVirt=   13 IFrame=0 Acc=  1.00D-08.
  Memory needed for Incore Integrals:                  419785
  Integrals KEPT IN MEMORY
 IBUJAK length=                    4488
 Integral file not found: evaluate integrals 
 FoFCou: FMM=F IPFlag=           0 FMFlag=           0 FMFlg1=           0
         NFxFlg=           0 DoJE=F BraDBF=F KetDBF=F FulRan=T
         wScrn=  0.000000 ICntrl=       600 IOpCl=  0 I1Cent=           0 NGrid=           0
         NMat0=    1 NMatS0=      1 NMatT0=    0 NMatD0=    1 NMtDS0=    0 NMtDT0=    0
 Symmetry not used in FoFCou.
 Defining IBUGAM
 2ND ORD PT ENERGY     CV   -0.006183   CU   -0.000797   UV   -0.005604
 TOTAL                    -191.603300
 ITN=  1 MaxIt= 64 E=   -191.5907163310 DE=-1.92D+02 Acc= 1.00D-08 Lan=  0
 ITN=  2 MaxIt= 64 E=   -191.6071297067 DE=-1.64D-02 Acc= 1.00D-08 Lan=  0
 ITN=  3 MaxIt= 64 E=   -191.6091072824 DE=-1.98D-03 Acc= 1.00D-08 Lan=  0
 ITN=  4 MaxIt= 64 E=   -191.6093364017 DE=-2.29D-04 Acc= 1.00D-08 Lan=  0
 ITN=  5 MaxIt= 64 E=   -191.6093655080 DE=-2.91D-05 Acc= 1.00D-08 Lan=  0
 ITN=  6 MaxIt= 64 E=   -191.6093697229 DE=-4.21D-06 Acc= 1.00D-08 Lan=  0
 ITN=  7 MaxIt= 64 E=   -191.6093704948 DE=-7.72D-07 Acc= 1.00D-08 Lan=  0
 ITN=  8 MaxIt= 64 E=   -191.6093706851 DE=-1.90D-07 Acc= 1.00D-08 Lan=  0
 ITN=  9 MaxIt= 64 E=   -191.6093707445 DE=-5.94D-08 Acc= 1.00D-08 Lan=  0
 ITN= 10 MaxIt= 64 E=   -191.6093707655 DE=-2.10D-08 Acc= 1.00D-08 Lan=  0
 ITN= 11 MaxIt= 64 E=   -191.6093707733 DE=-7.78D-09 Acc= 1.00D-08 Lan=  0
 ... Do an extra-iteration for final printing.


                    EIGENVALUES AND  EIGENVECTORS OF CI MATRIX



   ( 1)     EIGENVALUE   -191.6093708    
 (    3) 0.7161560 (    1)-0.6979402 (    2)-0.0000000 (
 Final one electron symbolic density matrix:
                1             2 
      1  0.974241D+00
      2 -0.842047D-11  0.102576D+01
 MCSCF converged.
 Leave Link  510 at Wed Jun  2 22:25:24 2021, MaxMem=  1073741824 cpu:               6.7 elap:               1.5
 (Enter /Applications/g16/l601.exe)
 Copying SCF densities to generalized density rwf, IOpCl= 0 IROHF=3.

 **********************************************************************

            Population analysis using the SCF Density.

 **********************************************************************

 Orbital symmetries:
       Occupied  (A) (A) (A) (A) (A) (A) (A) (A) (A) (A) (A) (A)
                 (A) (A) (A) (A) (A) (A) (A)
       Virtual   (A) (A) (A) (A) (A) (A) (A) (A) (A) (A) (A) (A)
                 (A) (A)
 The electronic state is 1-A.
     Natural Orbital Coefficients:
                           1         2         3         4         5
     Eigenvalues --     2.00000   2.00000   2.00000   2.00000   2.00000
   1 1   C  1S         -0.04334   0.02638  -0.11872   0.06675   0.04636
   2        2S          0.29242   0.01903   0.20825  -0.26032   0.12399
   3        2PX        -0.05979  -0.04169  -0.02156  -0.27445   0.26159
   4        2PY         0.01756  -0.24088  -0.07984  -0.01658   0.28335
   5        2PZ         0.00486   0.07261   0.09823   0.14322   0.20387
   6 2   C  1S          0.00302  -0.13014   0.32197   0.13322  -0.02474
   7        2S          0.29176  -0.22928  -0.24392  -0.06089   0.10047
   8        2PX        -0.03900  -0.25668   0.03771   0.17543   0.02133
   9        2PY        -0.02092   0.20157  -0.04367   0.11625  -0.25862
  10        2PZ         0.01185   0.16286   0.09731   0.12174   0.09066
  11 3   C  1S         -0.02075   0.07410  -0.26345   0.19538  -0.00104
  12        2S          0.22326   0.26822   0.14525  -0.12142  -0.14170
  13        2PX         0.01271   0.16831  -0.18219  -0.14623   0.01240
  14        2PY        -0.12806  -0.00077   0.07575  -0.10922  -0.04365
  15        2PZ        -0.01450   0.01561   0.02795   0.04612   0.04676
  16 4   C  1S         -0.03177   0.10151  -0.18229  -0.08746  -0.00935
  17        2S          0.32426  -0.01634  -0.03414   0.20196   0.03796
  18        2PX         0.08131   0.13715  -0.00133  -0.06786   0.01879
  19        2PY         0.02792  -0.08458   0.17073   0.13796  -0.12975
  20        2PZ         0.01561   0.14135   0.05523   0.21342   0.26874
  21 5   C  1S         -0.02264  -0.33097   0.58761  -0.06477  -0.00534
  22        2S          0.25215  -0.00293  -0.08994   0.12121  -0.21793
  23        2PX         0.03831   0.05951   0.16222   0.13970  -0.25832
  24        2PY         0.07154   0.18007   0.01634  -0.04763   0.04758
  25        2PZ         0.01893   0.04211   0.02505   0.05548   0.03469
  26 6   H  1S          0.04891   0.07113   0.02028  -0.30863  -0.05374
  27 7   H  1S          0.06557   0.09957   0.14374  -0.04437   0.21841
  28 8   H  1S          0.05879  -0.22569  -0.14557  -0.02726  -0.08346
  29 9   H  1S          0.07011  -0.01753  -0.01420   0.20621  -0.03938
  30 10  H  1S          0.06397   0.04097   0.02300   0.24265   0.19802
  31 11  H  1S          0.04415  -0.17554  -0.03777  -0.05012  -0.21098
  32 12  H  1S          0.03414  -0.18150  -0.09961   0.04530  -0.02618
  33 13  H  1S         -0.02182   0.04380   0.16309  -0.11313  -0.05970
                           6         7         8         9        10
     Eigenvalues --     2.00000   2.00000   2.00000   2.00000   2.00000
   1 1   C  1S          0.12579  -0.01310   0.15537  -0.01158   0.03643
   2        2S         -0.27400  -0.18174   0.07199  -0.19423  -0.03934
   3        2PX         0.11290   0.03558  -0.20469   0.17230   0.03136
   4        2PY        -0.06052   0.19177   0.08246  -0.19823   0.14590
   5        2PZ         0.01484   0.01296  -0.08900  -0.05298   0.01142
   6 2   C  1S         -0.12074   0.14488  -0.00585   0.11020  -0.16668
   7        2S         -0.01514  -0.18396   0.16821   0.08276  -0.01321
   8        2PX        -0.11918  -0.01216   0.04798  -0.08552  -0.03986
   9        2PY         0.13248  -0.16095   0.00913   0.24223  -0.16581
  10        2PZ        -0.02928   0.00834   0.09478  -0.13225   0.06458
  11 3   C  1S         -0.31435  -0.05265  -0.01237  -0.16105  -0.01245
  12        2S          0.06999   0.15338  -0.13138   0.14279   0.26332
  13        2PX         0.10385  -0.09726   0.14210   0.13643  -0.12140
  14        2PY        -0.11947   0.22480   0.35326   0.01229  -0.05376
  15        2PZ        -0.02465   0.00656   0.05127  -0.00103   0.01259
  16 4   C  1S          0.46760  -0.25589   0.34481  -0.38682   0.42320
  17        2S          0.24204   0.22863  -0.24458  -0.03102  -0.20871
  18        2PX         0.01969   0.07571  -0.12366   0.02957   0.12392
  19        2PY        -0.03401  -0.22554  -0.29727  -0.09014   0.22579
  20        2PZ        -0.01398  -0.11087   0.11993   0.26328   0.07562
  21 5   C  1S          0.48750  -0.12905   0.16929   0.10432   0.00260
  22        2S         -0.13917   0.19605   0.20903   0.10774   0.12321
  23        2PX        -0.14557  -0.27040   0.07983  -0.17314  -0.04740
  24        2PY         0.06801   0.12007   0.11190  -0.15666  -0.34573
  25        2PZ        -0.00860  -0.01400   0.02421   0.01147  -0.01605
  26 6   H  1S          0.00944  -0.11321  -0.06797   0.15217  -0.07022
  27 7   H  1S         -0.01322  -0.06499  -0.14197   0.00128  -0.03371
  28 8   H  1S          0.01578  -0.10215  -0.02782   0.15018  -0.09890
  29 9   H  1S         -0.03240  -0.13500   0.12975  -0.01687  -0.05240
  30 10  H  1S          0.04492  -0.05294   0.09570   0.17909  -0.09484
  31 11  H  1S          0.05781   0.08905  -0.10661  -0.22577  -0.18514
  32 12  H  1S         -0.07931   0.04622  -0.07695   0.19348   0.38752
  33 13  H  1S         -0.10774   0.31113   0.23869   0.00206   0.07717
                          11        12        13        14        15
     Eigenvalues --     2.00000   2.00000   2.00000   2.00000   2.00000
   1 1   C  1S         -0.33569   0.04676  -0.16232  -0.05758   0.29000
   2        2S         -0.10039   0.09686  -0.01051  -0.04822  -0.14416
   3        2PX         0.04969   0.14463  -0.02438  -0.07625   0.14330
   4        2PY        -0.04291  -0.19708   0.07547   0.06768  -0.01875
   5        2PZ         0.16733  -0.11028  -0.14371  -0.15375   0.11812
   6 2   C  1S          0.47469   0.24452   0.58675  -0.20548  -0.06372
   7        2S          0.08856  -0.28007  -0.01140  -0.08010   0.12763
   8        2PX         0.04510   0.31173  -0.21788   0.06411   0.16107
   9        2PY         0.13059   0.06416  -0.13359  -0.08452   0.13413
  10        2PZ         0.17654  -0.12199  -0.11126  -0.00561  -0.01600
  11 3   C  1S         -0.14698   0.09882   0.46514   0.16061   0.53288
  12        2S         -0.03975  -0.16619   0.03263  -0.13666   0.18815
  13        2PX         0.06558  -0.28148   0.11170  -0.06737  -0.09767
  14        2PY        -0.06517   0.06727  -0.05508  -0.19105   0.06260
  15        2PZ        -0.00493   0.02517  -0.01350   0.00851  -0.01007
  16 4   C  1S          0.17087   0.33678   0.19909  -0.20719  -0.03419
  17        2S         -0.11336   0.15677  -0.04431  -0.03801  -0.02271
  18        2PX         0.20928   0.14565  -0.07710   0.36145   0.12383
  19        2PY        -0.08218  -0.04833   0.00804  -0.07608   0.04324
  20        2PZ        -0.16877   0.09441   0.09244   0.05201  -0.08027
  21 5   C  1S         -0.10976  -0.21501   0.11656   0.28473   0.26176
  22        2S          0.10531   0.14155  -0.11979   0.20675  -0.19066
  23        2PX        -0.11183  -0.06814   0.04043  -0.03418  -0.10666
  24        2PY         0.03317   0.07466  -0.00150   0.22022   0.05463
  25        2PZ        -0.00072   0.00528  -0.01026   0.00336  -0.00363
  26 6   H  1S         -0.06249   0.23899   0.04532   0.02760  -0.03641
  27 7   H  1S          0.13214   0.01970  -0.13196  -0.17396   0.10073
  28 8   H  1S         -0.08102   0.11491  -0.01960  -0.01732   0.13058
  29 9   H  1S          0.19730   0.04282  -0.24757   0.00543   0.16034
  30 10  H  1S         -0.26997   0.01782   0.10447  -0.15179  -0.14215
  31 11  H  1S         -0.02365  -0.12575  -0.03769  -0.23569  -0.01927
  32 12  H  1S          0.04010  -0.01079  -0.04196  -0.08717  -0.09433
  33 13  H  1S         -0.08215   0.07184  -0.06713  -0.15988   0.12928
                          16        17        18        19        20
     Eigenvalues --     2.00000   2.00000   2.00000   1.02576   0.97424
   1 1   C  1S         -0.26072   0.81945  -0.01936   0.00135   0.00590
   2        2S         -0.09788  -0.07948  -0.02091  -0.00422  -0.02662
   3        2PX        -0.06358  -0.03855   0.16557  -0.01353   0.00507
   4        2PY         0.11767   0.02660   0.03042  -0.02186  -0.02094
   5        2PZ        -0.13133  -0.05305  -0.34049  -0.03037   0.03616
   6 2   C  1S         -0.02867   0.37730  -0.00176  -0.00135   0.00590
   7        2S          0.17524  -0.01081   0.06026   0.00422  -0.02662
   8        2PX         0.10800  -0.05379   0.04979   0.01353   0.00507
   9        2PY        -0.04841  -0.01285  -0.01166  -0.02186   0.02094
  10        2PZ        -0.10100   0.00937   0.40363  -0.03037  -0.03616
  11 3   C  1S         -0.39021  -0.28694   0.04301  -0.01245  -0.01085
  12        2S          0.21325   0.05461   0.04355   0.05816   0.05192
  13        2PX        -0.16232  -0.00926   0.00858   0.03961   0.03930
  14        2PY         0.01249  -0.11230  -0.04013  -0.04678  -0.04281
  15        2PZ         0.00972  -0.01004   0.05482   0.68738   0.71075
  16 4   C  1S          0.05089  -0.09129  -0.10868  -0.00000   0.00355
  17        2S         -0.01376  -0.03181   0.10035   0.00000  -0.01679
  18        2PX         0.12370   0.11806  -0.07032   0.00000  -0.01171
  19        2PY         0.15543   0.07004   0.04936  -0.01813   0.00000
  20        2PZ         0.14413  -0.02813  -0.00746  -0.06209  -0.00000
  21 5   C  1S         -0.19906  -0.14077   0.03062   0.01245  -0.01085
  22        2S         -0.21393  -0.02265  -0.12170  -0.05816   0.05193
  23        2PX         0.08992   0.00497  -0.06075  -0.03961   0.03930
  24        2PY         0.12159   0.01305  -0.06426  -0.04679   0.04282
  25        2PZ         0.00496  -0.01178  -0.06779   0.68738  -0.71075
  26 6   H  1S         -0.03337  -0.03026   0.29941   0.09554  -0.08868
  27 7   H  1S         -0.17024  -0.09675  -0.28597  -0.11839   0.13077
  28 8   H  1S          0.14968  -0.03623  -0.34311   0.11839   0.13077
  29 9   H  1S          0.04354  -0.02596   0.29910  -0.09554  -0.08868
  30 10  H  1S          0.02968  -0.09011   0.05567  -0.20789   0.00703
  31 11  H  1S         -0.17116  -0.04303   0.07027   0.20789   0.00703
  32 12  H  1S         -0.18116  -0.00176   0.03249   0.01384  -0.01924
  33 13  H  1S          0.14881  -0.06469  -0.02936  -0.01384  -0.01924
                          21        22        23        24        25
     Eigenvalues --     0.00000   0.00000   0.00000   0.00000   0.00000
   1 1   C  1S         -0.10502   0.03985  -0.02205   0.00008  -0.19967
   2        2S          0.66570  -0.22909   0.12651   0.00151   1.22043
   3        2PX         0.32138   0.53850  -0.09567  -0.26930  -0.19113
   4        2PY        -0.15507  -0.20179  -0.24724   0.04306   0.04879
   5        2PZ        -0.19342  -0.13001  -0.31820   0.23759   0.03312
   6 2   C  1S         -0.08072   0.01113  -0.05042  -0.00328   0.12441
   7        2S          0.50585  -0.06344   0.32724   0.02809  -0.76728
   8        2PX        -0.52641   0.34916  -0.08739   0.18104   0.00758
   9        2PY         0.41404  -0.28348  -0.02212  -0.10627   0.19941
  10        2PZ         0.06357   0.34259  -0.09411  -0.77294  -0.02656
  11 3   C  1S          0.08793  -0.03652  -0.03666   0.01274   0.00042
  12        2S         -0.54754   0.20576   0.22876  -0.07995  -0.00578
  13        2PX        -0.62062   0.31397  -0.36305   0.33901   0.33209
  14        2PY        -0.09275   0.04392   0.27414   0.20259   0.08725
  15        2PZ         0.11350  -0.08007  -0.08725   0.13363  -0.00465
  16 4   C  1S          0.06989  -0.02539   0.02160   0.03778  -0.12689
  17        2S         -0.45427   0.14309  -0.14075  -0.24287   0.77827
  18        2PX         0.37007   0.52283   0.13821   0.68675   0.11185
  19        2PY        -0.07027  -0.38552  -0.29622   0.14879  -0.11703
  20        2PZ        -0.27816  -0.08553   0.80871  -0.13463  -0.03270
  21 5   C  1S         -0.00820   0.02526   0.07550   0.04716   0.14537
  22        2S          0.05694  -0.15449  -0.46645  -0.29273  -0.87290
  23        2PX        -0.16549   0.75608  -0.03099  -0.08424  -0.19524
  24        2PY        -0.20588  -0.17513   0.16661  -0.12406  -0.25685
  25        2PZ         0.06461   0.05446  -0.10040  -0.03240  -0.08223
  26 6   H  1S         -0.59933  -0.39047  -0.31272   0.25665  -0.41400
  27 7   H  1S         -0.23258  -0.02843   0.22331  -0.06045  -0.48423
  28 8   H  1S         -0.09295   0.25373  -0.22385  -0.68100   0.26903
  29 9   H  1S         -0.12146  -0.28516   0.01846   0.39981   0.26467
  30 10  H  1S          0.53324   0.29972  -0.50766   0.56957  -0.25188
  31 11  H  1S          0.14863   0.19906   0.72642   0.36572  -0.30583
  32 12  H  1S         -0.23126   0.12558   0.34898   0.08151   0.25412
  33 13  H  1S          0.19668  -0.00987  -0.40989  -0.00539   0.01139
                          26        27        28        29        30
     Eigenvalues --     0.00000  -0.00000  -0.00000  -0.00000  -0.00000
   1 1   C  1S          0.00603  -0.01511  -0.03235   0.06144   0.07101
   2        2S         -0.04097   0.10415   0.21547  -0.38135  -0.45165
   3        2PX        -0.19620   0.60622   0.02684   0.08703  -0.10532
   4        2PY        -0.01021   0.20257  -0.14915  -0.11465  -0.10722
   5        2PZ         0.22996  -0.21580   0.62360  -0.00730   0.08198
   6 2   C  1S          0.01553   0.11993  -0.03356  -0.13066   0.05100
   7        2S         -0.10709  -0.74983   0.21320   0.79031  -0.33900
   8        2PX        -0.11605  -0.29766   0.00136  -0.26736  -0.79873
   9        2PY         0.04648  -0.08638  -0.10974  -0.01672  -0.56138
  10        2PZ         0.46074  -0.17824   0.27864  -0.08204   0.04879
  11 3   C  1S          0.10765   0.03458  -0.01934   0.17157   0.01174
  12        2S         -0.64826  -0.21595   0.12733  -1.03272  -0.07393
  13        2PX         0.14582   0.40125  -0.04297   0.09215  -0.40087
  14        2PY        -0.26023   0.11164   0.69402   0.39021   0.34200
  15        2PZ        -0.10658  -0.00983  -0.04868   0.08570   0.07299
  16 4   C  1S          0.05281   0.01881   0.00045  -0.19195  -0.02052
  17        2S         -0.36336  -0.10748   0.01782   1.18135   0.14297
  18        2PX         0.27998   0.00283   0.26626   0.18485   0.17862
  19        2PY         0.27717   0.54858   0.29106   0.28553  -0.26507
  20        2PZ         0.26105   0.35961   0.20659   0.10392  -0.20608
  21 5   C  1S          0.05474  -0.12326  -0.05873   0.02042   0.04088
  22        2S         -0.34317   0.74960   0.34371  -0.12484  -0.24196
  23        2PX        -0.10285   0.03747  -0.21604   0.30792   0.20057
  24        2PY         0.48081   0.11915  -0.22347  -0.16578  -0.11690
  25        2PZ        -0.07950   0.06003  -0.14216  -0.00724   0.01473
  26 6   H  1S          0.33393  -0.41460   0.22792   0.05806   0.26987
  27 7   H  1S         -0.13999   0.03105  -0.68395   0.13207   0.12701
  28 8   H  1S          0.48989   0.22323   0.20061  -0.33833   0.52522
  29 9   H  1S         -0.18565   0.58961  -0.29683  -0.18948   0.76269
  30 10  H  1S          0.14199  -0.18166  -0.01757  -0.47790   0.16553
  31 11  H  1S          0.47980   0.32374   0.22856  -0.33356  -0.11843
  32 12  H  1S          0.57707  -0.26315  -0.43131   0.03584   0.08231
  33 13  H  1S          0.61780   0.09788  -0.63282   0.29985  -0.27147
                          31        32        33
     Eigenvalues --    -0.00000  -0.00000  -0.00000
   1 1   C  1S          0.01343  -0.01735   0.00110
   2        2S         -0.12914   0.08547  -0.00169
   3        2PX        -0.11564   0.46402  -0.34884
   4        2PY         0.90454  -0.09961  -0.38567
   5        2PZ        -0.25180   0.18433  -0.65884
   6 2   C  1S          0.05315  -0.02317  -0.01112
   7        2S         -0.28955   0.17462   0.06259
   8        2PX        -0.05942  -0.07839   0.16291
   9        2PY         0.69014   0.06311  -0.27260
  10        2PZ         0.18011  -0.16776   0.34621
  11 3   C  1S         -0.00256  -0.02432   0.00190
  12        2S          0.03502   0.17604  -0.00577
  13        2PX        -0.14235  -0.14915   0.27450
  14        2PY         0.40848   0.33926   0.43505
  15        2PZ         0.01812   0.10758   0.01132
  16 4   C  1S         -0.01929   0.01430   0.00359
  17        2S          0.12682  -0.09828  -0.02412
  18        2PX         0.31955  -0.28601   0.16271
  19        2PY        -0.03070   0.20072   0.51970
  20        2PZ        -0.06472  -0.30764  -0.28779
  21 5   C  1S          0.00781   0.00838   0.01690
  22        2S         -0.07249  -0.07624  -0.11345
  23        2PX         0.27658   0.28536  -0.56131
  24        2PY        -0.13404   0.93973   0.13010
  25        2PZ         0.06090   0.10212   0.11723
  26 6   H  1S          0.32081  -0.17737  -0.34832
  27 7   H  1S          0.45083  -0.32144   0.55982
  28 8   H  1S          0.13699  -0.19280   0.22182
  29 9   H  1S         -0.24473   0.01622  -0.19925
  30 10  H  1S          0.14801   0.14320   0.31518
  31 11  H  1S          0.07360  -0.32919  -0.16660
  32 12  H  1S          0.07026   0.84687   0.02533
  33 13  H  1S         -0.41041  -0.41906  -0.27397
          Condensed to atoms (all electrons):
               1          2          3          4          5          6
     1  C    4.736288   0.358485  -0.034034  -0.034569   0.383397   0.379790
     2  C    0.358485   4.736288   0.383396  -0.034569  -0.034035  -0.018468
     3  C   -0.034034   0.383396   5.045213   0.379541  -0.037826   0.001273
     4  C   -0.034569  -0.034569   0.379541   4.718838   0.379541   0.001163
     5  C    0.383397  -0.034035  -0.037826   0.379541   5.045213  -0.021695
     6  H    0.379790  -0.018468   0.001273   0.001163  -0.021695   0.633936
     7  H    0.375544  -0.020336   0.000533   0.000735  -0.022961  -0.025294
     8  H   -0.020336   0.375545  -0.022961   0.000735   0.000533  -0.004892
     9  H   -0.018468   0.379790  -0.021695   0.001163   0.001273   0.000851
    10  H    0.000887   0.001095  -0.021919   0.374214  -0.021084  -0.000023
    11  H    0.001095   0.000887  -0.021084   0.374215  -0.021919  -0.000024
    12  H   -0.020555   0.001186   0.001322  -0.020569   0.387289  -0.000951
    13  H    0.001186  -0.020555   0.387289  -0.020569   0.001322  -0.000024
               7          8          9         10         11         12
     1  C    0.375544  -0.020336  -0.018468   0.000887   0.001095  -0.020555
     2  C   -0.020336   0.375545   0.379790   0.001095   0.000887   0.001186
     3  C    0.000533  -0.022961  -0.021695  -0.021919  -0.021084   0.001322
     4  C    0.000735   0.000735   0.001163   0.374214   0.374215  -0.020569
     5  C   -0.022961   0.000533   0.001273  -0.021084  -0.021919   0.387289
     6  H   -0.025294  -0.004892   0.000851  -0.000023  -0.000024  -0.000951
     7  H    0.643097   0.001576  -0.004892   0.000006  -0.000027  -0.000371
     8  H    0.001576   0.643097  -0.025294  -0.000027   0.000006  -0.000027
     9  H   -0.004892  -0.025294   0.633937  -0.000024  -0.000023  -0.000024
    10  H    0.000006  -0.000027  -0.000024   0.642183  -0.026639  -0.000745
    11  H   -0.000027   0.000006  -0.000023  -0.026639   0.642181  -0.000546
    12  H   -0.000371  -0.000027  -0.000024  -0.000745  -0.000546   0.605720
    13  H   -0.000027  -0.000371  -0.000951  -0.000546  -0.000745  -0.000024
              13
     1  C    0.001186
     2  C   -0.020555
     3  C    0.387289
     4  C   -0.020569
     5  C    0.001322
     6  H   -0.000024
     7  H   -0.000027
     8  H   -0.000371
     9  H   -0.000951
    10  H   -0.000546
    11  H   -0.000745
    12  H   -0.000024
    13  H    0.605720
 Mulliken charges:
               1
     1  C   -0.108710
     2  C   -0.108710
     3  C   -0.039048
     4  C   -0.119868
     5  C   -0.039048
     6  H    0.054358
     7  H    0.052417
     8  H    0.052417
     9  H    0.054358
    10  H    0.052621
    11  H    0.052622
    12  H    0.048295
    13  H    0.048295
 Sum of Mulliken charges =  -0.00000
 Mulliken charges with hydrogens summed into heavy atoms:
               1
     1  C   -0.001935
     2  C   -0.001935
     3  C    0.009247
     4  C   -0.014625
     5  C    0.009247
 Electronic spatial extent (au):  <R**2>=            381.3815
 Charge=              0.0000 electrons
 Dipole moment (field-independent basis, Debye):
    X=              0.0591    Y=             -0.0000    Z=              0.0000  Tot=              0.0591
 Quadrupole moment (field-independent basis, Debye-Ang):
   XX=            -29.7545   YY=            -29.6956   ZZ=            -30.0582
   XY=             -0.0000   XZ=             -0.0000   YZ=             -0.0540
 Traceless Quadrupole moment (field-independent basis, Debye-Ang):
   XX=              0.0816   YY=              0.1405   ZZ=             -0.2221
   XY=             -0.0000   XZ=             -0.0000   YZ=             -0.0540
 Octapole moment (field-independent basis, Debye-Ang**2):
  XXX=             -0.3548  YYY=             -0.0000  ZZZ=              0.0000  XYY=             -0.4906
  XXY=              0.0000  XXZ=             -0.0000  XZZ=              0.5058  YZZ=              0.0000
  YYZ=             -0.0000  XYZ=              0.2035
 Hexadecapole moment (field-independent basis, Debye-Ang**3):
 XXXX=           -234.3149 YYYY=           -199.7983 ZZZZ=            -45.7362 XXXY=             -0.0001
 XXXZ=              0.0001 YYYX=             -0.0000 YYYZ=              1.0390 ZZZX=             -0.0000
 ZZZY=             -0.9668 XXYY=            -72.7075 XXZZ=            -43.7648 YYZZ=            -43.0945
 XXYZ=              0.6135 YYXZ=              0.0000 ZZXY=              0.0000
 N-N= 1.687600533234D+02 E-N=-7.837084995418D+02  KE= 1.902061793430D+02
 No NMR shielding tensors so no spin-rotation constants.
 Leave Link  601 at Wed Jun  2 22:25:24 2021, MaxMem=  1073741824 cpu:               0.4 elap:               0.1
 (Enter /Applications/g16/l9999.exe)
 1\1\GINC-MAC-MINI\SP\CASSCF\STO-3G\C5H8\TETSU\02-Jun-2021\0\\#p casscf
 (2,2)/sto-3g guess=read pop=no geom=allcheck\\Title Card Required\\0,1
 \C,0,1.024872,0.772022,-0.091024\C,0,1.024868,-0.772027,0.091022\C,0,-
 0.408439,-1.174719,-0.078831\C,0,-1.343203,0.000004,-0.000004\C,0,-0.4
 0843,1.174721,0.078841\H,0,1.697516,1.278691,0.615685\H,0,1.398694,1.0
 37633,-1.096417\H,0,1.3987,-1.037644,1.096409\H,0,1.697501,-1.278699,-
 0.615696\H,0,-2.022861,0.053956,-0.873123\H,0,-2.022885,-0.053944,0.87
 3094\H,0,-0.742327,2.206653,0.11941\H,0,-0.742342,-2.20665,-0.119391\\
 Version=EM64M-G16RevB.01\State=1-A\HF=-191.6093708\RMSD=0.000e+00\Dipo
 le=0.02324,0.0000005,-0.0000019\Quadrupole=0.0606739,0.1044329,-0.1651
 068,0.0000044,0.0000004,-0.0401772\PG=C01 [X(C5H8)]\\@


 THE ONLY TROUBLE WITH A SURE THING IS THE UNCERTAINTY.
     -- FROM A TEABAG (BELONGING TO W.H.?)
 Job cpu time:       0 days  0 hours  0 minutes 20.6 seconds.
 Elapsed time:       0 days  0 hours  0 minutes  5.0 seconds.
 File lengths (MBytes):  RWF=      6 Int=      0 D2E=      0 Chk=      1 Scr=      1
 Normal termination of Gaussian 16 at Wed Jun  2 22:25:24 2021.
 Initial command:
 /Applications/g16/l1.exe "/Applications/g16/Scratch/Gau-20556.inp" -scrdir="/Applications/g16/Scratch/"
 Entering Link 1 = /Applications/g16/l1.exe PID=     20566.
  
 Copyright (c) 1988-2017, Gaussian, Inc.  All Rights Reserved.
  
 This is part of the Gaussian(R) 16 program.  It is based on
 the Gaussian(R) 09 system (copyright 2009, Gaussian, Inc.),
 the Gaussian(R) 03 system (copyright 2003, Gaussian, Inc.),
 the Gaussian(R) 98 system (copyright 1998, Gaussian, Inc.),
 the Gaussian(R) 94 system (copyright 1995, Gaussian, Inc.),
 the Gaussian 92(TM) system (copyright 1992, Gaussian, Inc.),
 the Gaussian 90(TM) system (copyright 1990, Gaussian, Inc.),
 the Gaussian 88(TM) system (copyright 1988, Gaussian, Inc.),
 the Gaussian 86(TM) system (copyright 1986, Carnegie Mellon
 University), and the Gaussian 82(TM) system (copyright 1983,
 Carnegie Mellon University). Gaussian is a federally registered
 trademark of Gaussian, Inc.
  
 This software contains proprietary and confidential information,
 including trade secrets, belonging to Gaussian, Inc.
  
 This software is provided under written license and may be
 used, copied, transmitted, or stored only in accord with that
 written license.
  
 The following legend is applicable only to US Government
 contracts under FAR:
  
                    RESTRICTED RIGHTS LEGEND
  
 Use, reproduction and disclosure by the US Government is
 subject to restrictions as set forth in subparagraphs (a)
 and (c) of the Commercial Computer Software - Restricted
 Rights clause in FAR 52.227-19.
  
 Gaussian, Inc.
 340 Quinnipiac St., Bldg. 40, Wallingford CT 06492
  
  
 ---------------------------------------------------------------
 Warning -- This program may not be used in any manner that
 competes with the business of Gaussian, Inc. or will provide
 assistance to any competitor of Gaussian, Inc.  The licensee
 of this program is prohibited from giving any competitor of
 Gaussian, Inc. access to this program.  By using this program,
 the user acknowledges that Gaussian, Inc. is engaged in the
 business of creating and licensing software in the field of
 computational chemistry and represents and warrants to the
 licensee that it is not a competitor of Gaussian, Inc. and that
 it will not use this program in any manner prohibited above.
 ---------------------------------------------------------------
  

 Cite this work as:
 Gaussian 16, Revision B.01,
 M. J. Frisch, G. W. Trucks, H. B. Schlegel, G. E. Scuseria, 
 M. A. Robb, J. R. Cheeseman, G. Scalmani, V. Barone, 
 G. A. Petersson, H. Nakatsuji, X. Li, M. Caricato, A. V. Marenich, 
 J. Bloino, B. G. Janesko, R. Gomperts, B. Mennucci, H. P. Hratchian, 
 J. V. Ortiz, A. F. Izmaylov, J. L. Sonnenberg, D. Williams-Young, 
 F. Ding, F. Lipparini, F. Egidi, J. Goings, B. Peng, A. Petrone, 
 T. Henderson, D. Ranasinghe, V. G. Zakrzewski, J. Gao, N. Rega, 
 G. Zheng, W. Liang, M. Hada, M. Ehara, K. Toyota, R. Fukuda, 
 J. Hasegawa, M. Ishida, T. Nakajima, Y. Honda, O. Kitao, H. Nakai, 
 T. Vreven, K. Throssell, J. A. Montgomery, Jr., J. E. Peralta, 
 F. Ogliaro, M. J. Bearpark, J. J. Heyd, E. N. Brothers, K. N. Kudin, 
 V. N. Staroverov, T. A. Keith, R. Kobayashi, J. Normand, 
 K. Raghavachari, A. P. Rendell, J. C. Burant, S. S. Iyengar, 
 J. Tomasi, M. Cossi, J. M. Millam, M. Klene, C. Adamo, R. Cammi, 
 J. W. Ochterski, R. L. Martin, K. Morokuma, O. Farkas, 
 J. B. Foresman, and D. J. Fox, Gaussian, Inc., Wallingford CT, 2016.
 
 ******************************************
 Gaussian 16:  EM64M-G16RevB.01 20-Dec-2017
                 2-Jun-2021 
 ******************************************
 %nprocshared=6
 Will use up to    6 processors via shared memory.
 %mem=8GB
 %oldchk=drch_6_2.chk
 %chk=drch_6_3.chk
 Copying data from "drch_6_2.chk" to current chk file "drch_6_3.chk"
 IOpt=  2 FromEx=T IUOpen= 4 IOptOp= 5 NList=   0 IFRang= 0 IUIn= 4 IUOut= 2.
 ----------------------------------------------------
 #p casscf(2,2)/4-31g guess=read pop=no geom=allcheck
 ----------------------------------------------------
 1/29=7,38=1,172=1/1;
 2/12=2,40=1/2;
 3/5=1,14=-4,25=1,116=101/1,2,3;
 4/5=1,17=2,18=2,43=1/1,5;
 5/5=2,17=1000000,38=6/10;
 6/7=2,8=2,9=2,10=2,22=-1,28=1,31=1/1;
 99/5=1,9=1/99;
 Leave Link    1 at Wed Jun  2 22:25:24 2021, MaxMem=  1073741824 cpu:               0.1 elap:               0.0
 (Enter /Applications/g16/l101.exe)
 Structure from the checkpoint file:  "drch_6_3.chk"
 -------------------
 Title Card Required
 -------------------
 Charge =  0 Multiplicity = 1
 Z-Matrix found in chk file.
 C,0,1.024872,0.772022,-0.091024
 C,0,1.024868,-0.772027,0.091022
 C,0,-0.408439,-1.174719,-0.078831
 C,0,-1.343203,0.000004,-0.000004
 C,0,-0.40843,1.174721,0.078841
 H,0,1.697516,1.278691,0.615685
 H,0,1.398694,1.037633,-1.096417
 H,0,1.3987,-1.037644,1.096409
 H,0,1.697501,-1.278699,-0.615696
 H,0,-2.022861,0.053956,-0.873123
 H,0,-2.022885,-0.053944,0.873094
 H,0,-0.742327,2.206653,0.11941
 H,0,-0.742342,-2.20665,-0.119391
 Recover connectivity data from disk.
 ITRead=  0  0  0  0  0  0  0  0  0  0  0  0  0
 MicOpt= -1 -1 -1 -1 -1 -1 -1 -1 -1 -1 -1 -1 -1
 NAtoms=     13 NQM=       13 NQMF=       0 NMMI=      0 NMMIF=      0
                NMic=       0 NMicF=      0.
                    Isotopes and Nuclear Properties:
 (Nuclear quadrupole moments (NQMom) in fm**2, nuclear magnetic moments (NMagM)
  in nuclear magnetons)

  Atom         1           2           3           4           5           6           7           8           9          10
 IAtWgt=          12          12          12          12          12           1           1           1           1           1
 AtmWgt=  12.0000000  12.0000000  12.0000000  12.0000000  12.0000000   1.0078250   1.0078250   1.0078250   1.0078250   1.0078250
 NucSpn=           0           0           0           0           0           1           1           1           1           1
 AtZEff=   3.6000000   3.6000000   3.6000000   3.6000000   3.6000000   1.0000000   1.0000000   1.0000000   1.0000000   1.0000000
 NQMom=    0.0000000   0.0000000   0.0000000   0.0000000   0.0000000   0.0000000   0.0000000   0.0000000   0.0000000   0.0000000
 NMagM=    0.0000000   0.0000000   0.0000000   0.0000000   0.0000000   2.7928460   2.7928460   2.7928460   2.7928460   2.7928460
 AtZNuc=   6.0000000   6.0000000   6.0000000   6.0000000   6.0000000   1.0000000   1.0000000   1.0000000   1.0000000   1.0000000

  Atom        11          12          13
 IAtWgt=           1           1           1
 AtmWgt=   1.0078250   1.0078250   1.0078250
 NucSpn=           1           1           1
 AtZEff=   1.0000000   1.0000000   1.0000000
 NQMom=    0.0000000   0.0000000   0.0000000
 NMagM=    2.7928460   2.7928460   2.7928460
 AtZNuc=   1.0000000   1.0000000   1.0000000
 Leave Link  101 at Wed Jun  2 22:25:24 2021, MaxMem=  1073741824 cpu:               0.7 elap:               0.1
 (Enter /Applications/g16/l202.exe)
                          Input orientation:                          
 ---------------------------------------------------------------------
 Center     Atomic      Atomic             Coordinates (Angstroms)
 Number     Number       Type             X           Y           Z
 ---------------------------------------------------------------------
      1          6           0        1.024872    0.772022   -0.091024
      2          6           0        1.024868   -0.772027    0.091022
      3          6           0       -0.408439   -1.174719   -0.078831
      4          6           0       -1.343203    0.000004   -0.000004
      5          6           0       -0.408430    1.174721    0.078841
      6          1           0        1.697516    1.278691    0.615685
      7          1           0        1.398694    1.037633   -1.096417
      8          1           0        1.398700   -1.037644    1.096409
      9          1           0        1.697501   -1.278699   -0.615696
     10          1           0       -2.022861    0.053956   -0.873123
     11          1           0       -2.022885   -0.053944    0.873094
     12          1           0       -0.742327    2.206653    0.119410
     13          1           0       -0.742342   -2.206650   -0.119391
 ---------------------------------------------------------------------
                    Distance matrix (angstroms):
                    1          2          3          4          5
     1  C    0.000000
     2  C    1.554744   0.000000
[...]
  33        2PX         0.27252   0.13299  -0.01194   0.00384   0.15459
  34        2PY         0.01460   0.13608   0.11747  -0.14206   0.10722
  35        2PZ         0.01769  -0.02162  -0.04097  -0.02819   0.16284
  36        3S         -3.28548   1.88322  -1.02027   1.93542   2.76588
  37        3PX         0.18389  -0.90867   0.26189  -0.13428  -0.93725
  38        3PY         1.29168  -1.59621  -0.78872   0.30368  -0.88569
  39        3PZ         0.21091  -0.05383   0.23139   0.21095  -0.36744
  40        4XX         0.58921   0.02348   0.23866  -0.18850  -0.16329
  41        4YY         0.38823   0.04720  -0.09267  -0.43065  -0.17405
  42        4ZZ         0.41133  -0.16708   0.11132  -0.52688  -0.30033
  43        4XY         0.02858   0.21932  -0.05182   0.05569  -0.00093
  44        4XZ        -0.03745  -0.10983  -0.04712  -0.16793   0.11764
  45        4YZ        -0.04813   0.02303   0.02885   0.01558   0.12537
  46 4   C  1S         -0.15379  -0.05109  -0.07395  -0.00302  -0.00034
  47        2S         -0.98807   0.41218   0.75564   0.11760   0.00191
  48        2PX        -0.09432  -0.05140   0.02317   0.16058  -0.08521
  49        2PY         0.00543  -0.01395  -0.02129   0.08529  -0.03775
  50        2PZ         0.03508   0.06123   0.33344   0.37828  -0.01315
  51        3S          5.61362  -1.61836  -0.11322   0.03338  -0.07733
  52        3PX         1.84375  -0.92899   0.04040  -0.17247   0.21667
  53        3PY         0.21688  -1.18088   0.40620  -0.65326  -2.16850
  54        3PZ         0.01489  -0.42219  -1.18087  -1.44971   0.33242
  55        4XX         0.02831  -0.01565  -0.32481   0.13560  -0.09845
  56        4YY        -0.21085  -0.19746   0.00625  -0.03063   0.09019
  57        4ZZ        -0.40258  -0.22211  -0.45199   0.04272  -0.05965
  58        4XY         0.14964  -0.18391   0.03303  -0.01341  -0.12329
  59        4XZ         0.01428   0.09304   0.06542   0.09653   0.02262
  60        4YZ        -0.05709   0.07544   0.03389  -0.08715   0.04383
  61 5   C  1S          0.01885  -0.16214  -0.00985  -0.05052   0.03676
  62        2S          0.28688   0.62053  -0.08605   0.81601   0.74130
  63        2PX         0.33467  -0.09017   0.13437   0.03509  -0.13055
  64        2PY         0.10795  -0.32229  -0.02782   0.13254  -0.02993
  65        2PZ         0.01644   0.08342  -0.00767  -0.07041  -0.00652
  66        3S         -2.65456   1.92456   0.33369  -0.97909  -2.62572
  67        3PX        -0.59725   1.09134  -0.46636   0.41852   1.18581
  68        3PY        -2.16586   0.93809  -0.55333  -0.40821  -0.68276
  69        3PZ        -0.32924   0.22409  -0.16575   0.51609  -0.27206
  70        4XX        -0.03810  -0.62100   0.12010  -0.13639  -0.03131
  71        4YY        -0.06849  -0.64769   0.08485  -0.27954  -0.10765
  72        4ZZ         0.11943  -0.85743  -0.00472  -0.16018   0.14917
  73        4XY         0.07593  -0.19672   0.08839  -0.00300   0.26369
  74        4XZ         0.04609   0.08274  -0.14135   0.12864   0.02630
  75        4YZ         0.07501   0.11244   0.04044   0.03178  -0.01236
  76 6   H  1S          0.12785  -0.07883   0.07641  -0.35892   0.35417
  77        2S          0.20688  -0.53951   0.94187   1.01733  -0.34023
  78 7   H  1S         -0.14895  -0.04152  -0.08652   0.28887  -0.14593
  79        2S         -0.30055   0.05106  -0.88464   0.72852   0.18162
  80 8   H  1S         -0.11172  -0.18635  -0.33370   0.17786  -0.42072
  81        2S         -0.34469   0.67851   0.70920  -0.62124  -0.37299
  82 9   H  1S          0.08739   0.15995   0.15582  -0.22467   0.13508
  83        2S          0.30246  -0.50192  -0.61713  -0.69182  -0.88732
  84 10  H  1S         -0.23957   0.30048   0.14843   0.03236  -0.05457
  85        2S         -0.30606  -0.33306   0.64024   0.71650  -0.08444
  86 11  H  1S         -0.10521   0.08716   0.13845  -0.13044   0.02565
  87        2S         -0.44283  -0.53800  -0.85170  -0.69911   0.38513
  88 12  H  1S         -0.23763   0.38201  -0.41055   0.18616  -0.19012
  89        2S         -0.74677  -0.06208  -0.30914  -0.14405   0.47456
  90 13  H  1S         -0.00166  -0.00793   0.25147   0.38396  -0.24493
  91        2S          0.23387   0.58783   0.70407  -1.10881  -0.06378
                          86        87        88        89        90
     Eigenvalues --    -0.00000  -0.00000  -0.00000  -0.00000  -0.00000
   1 1   C  1S         -0.03579  -0.00324  -0.01024  -0.02008  -0.05560
   2        2S          0.26383  -0.15139  -0.22250  -0.25789   0.48322
   3        2PX         0.10303  -0.09294   0.05709  -0.00022  -0.14144
   4        2PY         0.20272   0.14796   0.15326   0.12674  -0.13031
   5        2PZ         0.04476   0.00441   0.03444   0.13491  -0.01246
   6        3S         -0.10406   0.33259   0.17021   1.13792   0.46003
   7        3PX        -0.18664   1.58581  -0.32858  -0.55668   0.39353
   8        3PY        -0.24117   0.18398  -0.34071   0.41429  -0.44614
   9        3PZ         0.21628  -0.02737   0.10083  -0.73857   0.30536
  10        4XX         0.00497  -0.23186   0.19202   0.25514  -0.15183
  11        4YY        -0.27695  -0.08356  -0.01841  -0.08503  -0.16140
  12        4ZZ         0.13741   0.15677  -0.26896   0.04236  -0.25762
  13        4XY         0.12468  -0.07007   0.16767   0.23908   0.05846
  14        4XZ         0.28618  -0.13155   0.04902   0.05340   0.19107
  15        4YZ        -0.05890   0.06546  -0.01778   0.05790  -0.07073
  16 2   C  1S         -0.01224   0.07534   0.01030   0.05478   0.06950
  17        2S          0.35614  -0.31373  -0.07758   0.26151  -0.49906
  18        2PX         0.28398   0.01739  -0.07165   0.02854   0.04380
  19        2PY        -0.13984  -0.28130  -0.14035   0.03847  -0.04536
  20        2PZ        -0.08654  -0.10101  -0.04617  -0.13772   0.14887
  21        3S         -0.74006  -0.58136   0.24356  -1.34345  -0.77143
  22        3PX        -0.53280  -0.10521  -0.13475  -0.29479   0.94086
  23        3PY        -0.02988   0.70629  -0.00720   0.25091  -0.40695
  24        3PZ         0.05186   0.14773   0.16529   0.58434  -0.40981
  25        4XX         0.05492   0.21127   0.37516   0.29535   0.12804
  26        4YY        -0.14276   0.14107  -0.05813  -0.20081   0.24450
  27        4ZZ        -0.00665   0.33358  -0.27775  -0.17443   0.27071
  28        4XY        -0.13494   0.06383  -0.21826  -0.10078   0.08373
  29        4XZ        -0.20164   0.09708  -0.04745   0.04477  -0.06440
  30        4YZ         0.00306   0.11066   0.08309   0.10466  -0.08720
  31 3   C  1S         -0.04554   0.06562   0.08224   0.01371   0.06394
  32        2S          0.35571   0.12755  -0.44910   0.12355  -1.13766
  33        2PX        -0.28044   0.03088  -0.09780   0.33019  -0.28017
  34        2PY        -0.02187   0.06050   0.08277  -0.15722  -0.05614
  35        2PZ         0.49679  -0.05714   0.00611   0.04489   0.01108
  36        3S         -0.29935  -1.55487  -0.36254  -0.46551   0.92029
  37        3PX         0.56364   0.66969   0.10067  -0.30440   1.43316
  38        3PY         0.37790   0.13205   0.35802   0.09508  -0.35541
  39        3PZ        -0.58832   0.11517  -0.03142  -0.20455   0.03609
  40        4XX        -0.14725   0.13213  -0.06119   0.01724   0.58211
  41        4YY        -0.14148  -0.00018  -0.06335  -0.04873   0.33546
  42        4ZZ        -0.24764   0.12370   0.49761   0.07937   0.42069
  43        4XY        -0.05766  -0.01413  -0.03781  -0.19196  -0.27280
  44        4XZ        -0.09046   0.04327   0.00625   0.03025  -0.15132
  45        4YZ         0.09519   0.02607  -0.03304  -0.03671  -0.05380
  46 4   C  1S         -0.02055   0.06980   0.01440  -0.10077  -0.13687
  47        2S          0.04152  -0.40892   0.14137   0.43946   0.84472
  48        2PX        -0.00359  -0.17772   0.31552   0.08912  -0.10165
  49        2PY        -0.00775  -0.10266  -0.05233  -0.09483  -0.18089
  50        2PZ        -0.08364   0.11475   0.01831   0.12145  -0.03940
  51        3S          0.34191  -0.46744  -0.38795   0.84456   0.56902
  52        3PX        -0.11961   1.19598   0.24287  -0.14752   0.32741
  53        3PY         0.54465   0.58708   0.01011   0.07625   0.53535
  54        3PZ        -0.08201   0.03793   0.17442   0.20775  -0.28982
  55        4XX        -0.12495   0.47954   0.11158  -0.22530  -0.56773
  56        4YY        -0.11146   0.45007   0.70186  -0.20510  -0.65251
  57        4ZZ        -0.06779   0.34650  -0.41983  -0.13058  -0.50175
  58        4XY         0.05170   0.26188  -0.13013   0.05850  -0.32482
  59        4XZ         0.13035   0.06766  -0.01237  -0.01729  -0.07028
  60        4YZ         0.05078   0.00799   0.01619  -0.01258  -0.06717
  61 5   C  1S         -0.02544  -0.09982  -0.00580   0.03094   0.02482
  62        2S         -0.16663   0.51368  -0.09460   0.08205   0.07117
  63        2PX        -0.20818  -0.03129  -0.17089   0.11390   0.07458
  64        2PY        -0.02604   0.08157  -0.33238   0.21688   0.17909
  65        2PZ        -0.41653   0.02967   0.06881   0.06457  -0.01807
  66        3S          0.70751   1.20077  -0.07698  -0.77668  -0.21640
  67        3PX        -0.12988   1.06937   0.41164  -0.52800  -0.31504
  68        3PY         0.05112   0.00925   0.58914  -0.64037  -0.20795
  69        3PZ         0.49200   0.05190  -0.21949  -0.08588   0.06528
  70        4XX        -0.13427  -0.04044  -0.24660   0.11484   0.13673
  71        4YY         0.07647  -0.42962  -0.51654   0.01707  -0.07097
  72        4ZZ        -0.09368  -0.46254   0.16622  -0.39071  -0.03597
  73        4XY         0.00512   0.04835   0.17741   0.02264   0.15868
  74        4XZ         0.05393   0.08275  -0.01278   0.17077   0.02877
  75        4YZ         0.07444   0.03783  -0.06341   0.04293  -0.01086
  76 6   H  1S          0.22467  -0.09944   0.33361  -0.06850  -0.04170
  77        2S          0.07927  -0.80566  -0.20307  -0.10318  -0.25572
  78 7   H  1S         -0.50826  -0.10547   0.12774  -0.02488   0.00136
  79        2S          0.15601  -0.33145  -0.15221   0.53219  -0.64893
  80 8   H  1S         -0.19998  -0.11633   0.30573   0.01720   0.02918
  81        2S          0.34978   0.23521  -0.08339   0.86396  -0.34066
  82 9   H  1S          0.00995   0.04829   0.21078   0.06491   0.03454
  83        2S          0.45217  -0.37422  -0.08648   0.23163  -0.12302
  84 10  H  1S          0.01003  -0.39581   0.24860  -0.30833   0.01528
  85        2S          0.13806   1.05251   0.10082  -0.33252   0.40216
  86 11  H  1S         -0.20030  -0.32656   0.33451  -0.07254  -0.18264
  87        2S         -0.06659   1.18722   0.21665  -0.16195   0.11634
  88 12  H  1S         -0.02395   0.01629   0.33753   0.07272   0.18850
  89        2S         -0.32988   0.11094   0.20067  -0.15662  -0.13316
  90 13  H  1S          0.01418   0.25570   0.16397   0.10713   0.09720
  91        2S         -0.27537   0.23299  -0.17260   0.01846   0.06442
                          91
     Eigenvalues --    -0.00000
   1 1   C  1S          0.19251
   2        2S         -1.50526
   3        2PX        -0.19856
   4        2PY        -0.08577
   5        2PZ        -0.03524
   6        3S         -0.06923
   7        3PX         0.04204
   8        3PY         0.06213
   9        3PZ         0.40662
  10        4XX         0.77949
  11        4YY         0.60391
  12        4ZZ         0.65662
  13        4XY         0.00548
  14        4XZ         0.05667
  15        4YZ         0.01532
  16 2   C  1S          0.22539
  17        2S         -2.01295
  18        2PX        -0.03152
  19        2PY         0.07010
  20        2PZ         0.14254
  21        3S          0.36089
  22        3PX        -0.87472
  23        3PY        -0.02790
  24        3PZ        -0.37829
  25        4XX         1.20350
  26        4YY         0.95583
  27        4ZZ         0.95955
  28        4XY        -0.07400
  29        4XZ        -0.05803
  30        4YZ         0.01772
  31 3   C  1S         -0.05438
  32        2S          1.04554
  33        2PX        -0.12089
  34        2PY        -0.03047
  35        2PZ         0.03959
  36        3S         -1.58327
  37        3PX        -0.39878
  38        3PY         0.42820
  39        3PZ         0.15284
  40        4XX        -0.61080
  41        4YY        -0.34404
  42        4ZZ        -0.37228
  43        4XY         0.17387
  44        4XZ         0.07233
  45        4YZ        -0.05458
  46 4   C  1S         -0.24063
  47        2S          1.06399
  48        2PX         0.09621
  49        2PY         0.01193
  50        2PZ        -0.02958
  51        3S          2.11040
  52        3PX         0.22610
  53        3PY        -0.14659
  54        3PZ         0.01543
  55        4XX        -0.78269
  56        4YY        -0.75534
  57        4ZZ        -0.79330
  58        4XY         0.06114
  59        4XZ        -0.01107
  60        4YZ         0.00448
  61 5   C  1S         -0.09779
  62        2S          1.13057
  63        2PX        -0.03777
  64        2PY        -0.02629
  65        2PZ        -0.01626
  66        3S         -0.86933
  67        3PX         0.18560
  68        3PY        -0.22796
  69        3PZ        -0.07032
  70        4XX        -0.63084
  71        4YY        -0.46651
  72        4ZZ        -0.29181
  73        4XY        -0.00341
  74        4XZ        -0.05910
  75        4YZ        -0.03807
  76 6   H  1S          0.03552
  77        2S          0.32087
  78 7   H  1S         -0.02041
  79        2S         -0.20043
  80 8   H  1S         -0.16189
  81        2S          0.02784
  82 9   H  1S         -0.19268
  83        2S          0.56978
  84 10  H  1S         -0.03112
  85        2S         -0.31237
  86 11  H  1S         -0.05779
  87        2S         -0.25479
  88 12  H  1S          0.05817
  89        2S          0.12913
  90 13  H  1S          0.11215
  91        2S          0.10930
          Condensed to atoms (all electrons):
               1          2          3          4          5          6
     1  C    5.077379   0.334196  -0.065155  -0.068839   0.354789   0.398477
     2  C    0.334196   5.077381   0.354790  -0.068839  -0.065155  -0.032540
     3  C   -0.065155   0.354790   5.388991   0.347584  -0.064171   0.003934
     4  C   -0.068839  -0.068839   0.347584   5.022053   0.347583   0.003180
     5  C    0.354789  -0.065155  -0.064171   0.347583   5.388994  -0.041462
     6  H    0.398477  -0.032540   0.003934   0.003180  -0.041462   0.539322
     7  H    0.392665  -0.037514  -0.000011   0.003259  -0.047764  -0.034824
     8  H   -0.037513   0.392664  -0.047764   0.003259  -0.000011  -0.004104
     9  H   -0.032541   0.398477  -0.041462   0.003180   0.003934   0.001005
    10  H    0.001711   0.003714  -0.044852   0.395756  -0.041771  -0.000140
    11  H    0.003714   0.001711  -0.041771   0.395756  -0.044852   0.000027
    12  H   -0.032024   0.003572   0.003557  -0.031443   0.388827  -0.000298
    13  H    0.003572  -0.032024   0.388827  -0.031443   0.003557  -0.000059
               7          8          9         10         11         12
     1  C    0.392665  -0.037513  -0.032541   0.001711   0.003714  -0.032024
     2  C   -0.037514   0.392664   0.398477   0.003714   0.001711   0.003572
     3  C   -0.000011  -0.047764  -0.041462  -0.044852  -0.041771   0.003557
     4  C    0.003259   0.003259   0.003180   0.395756   0.395756  -0.031443
     5  C   -0.047764  -0.000011   0.003934  -0.041771  -0.044852   0.388827
     6  H   -0.034824  -0.004104   0.001005  -0.000140   0.000027  -0.000298
     7  H    0.560500   0.003383  -0.004104   0.000298  -0.000151  -0.000204
     8  H    0.003383   0.560499  -0.034825  -0.000151   0.000298  -0.000136
     9  H   -0.004104  -0.034825   0.539324   0.000027  -0.000140  -0.000059
    10  H    0.000298  -0.000151   0.000027   0.566037  -0.042891  -0.000231
    11  H   -0.000151   0.000298  -0.000140  -0.042891   0.566035  -0.000115
    12  H   -0.000204  -0.000136  -0.000059  -0.000231  -0.000115   0.489859
    13  H   -0.000136  -0.000204  -0.000297  -0.000116  -0.000231  -0.000062
              13
     1  C    0.003572
     2  C   -0.032024
     3  C    0.388827
     4  C   -0.031443
     5  C    0.003557
     6  H   -0.000059
     7  H   -0.000136
     8  H   -0.000204
     9  H   -0.000297
    10  H   -0.000116
    11  H   -0.000231
    12  H   -0.000062
    13  H    0.489859
 Mulliken charges:
               1
     1  C   -0.330432
     2  C   -0.330433
     3  C   -0.182497
     4  C   -0.321045
     5  C   -0.182499
     6  H    0.167483
     7  H    0.164603
     8  H    0.164603
     9  H    0.167482
    10  H    0.162609
    11  H    0.162610
    12  H    0.178758
    13  H    0.178758
 Sum of Mulliken charges =  -0.00000
 Mulliken charges with hydrogens summed into heavy atoms:
               1
     1  C    0.001654
     2  C    0.001652
     3  C   -0.003740
     4  C    0.004174
     5  C   -0.003741
 Electronic spatial extent (au):  <R**2>=            386.0368
 Charge=             -0.0000 electrons
 Dipole moment (field-independent basis, Debye):
    X=              0.0800    Y=             -0.0000    Z=              0.0000  Tot=              0.0800
 Quadrupole moment (field-independent basis, Debye-Ang):
   XX=            -31.6382   YY=            -31.3017   ZZ=            -32.8299
   XY=             -0.0000   XZ=             -0.0000   YZ=             -0.0568
 Traceless Quadrupole moment (field-independent basis, Debye-Ang):
   XX=              0.2851   YY=              0.6216   ZZ=             -0.9067
   XY=             -0.0000   XZ=             -0.0000   YZ=             -0.0568
 Octapole moment (field-independent basis, Debye-Ang**2):
  XXX=             -0.0168  YYY=             -0.0000  ZZZ=              0.0001  XYY=             -1.0353
  XXY=              0.0000  XXZ=             -0.0001  XZZ=              1.0164  YZZ=              0.0000
  YYZ=             -0.0000  XYZ=              0.2776
 Hexadecapole moment (field-independent basis, Debye-Ang**3):
 XXXX=           -254.6337 YYYY=           -212.6062 ZZZZ=            -56.0073 XXXY=             -0.0001
 XXXZ=              0.0001 YYYX=             -0.0001 YYYZ=              1.5377 ZZZX=             -0.0000
 ZZZY=             -1.4497 XXYY=            -78.4238 XXZZ=            -49.0381 YYZZ=            -49.3937
 XXYZ=              1.0012 YYXZ=              0.0000 ZZXY=              0.0000
 N-N= 1.687600533234D+02 E-N=-7.886278403018D+02  KE= 1.936837133759D+02
 No NMR shielding tensors so no spin-rotation constants.
 Leave Link  601 at Wed Jun  2 22:25:44 2021, MaxMem=  1073741824 cpu:               0.8 elap:               0.2
 (Enter /Applications/g16/l9999.exe)
 1\1\GINC-MAC-MINI\SP\CASSCF\6-31G(d)\C5H8\TETSU\02-Jun-2021\0\\#p cass
 cf(2,2)/6-31g(d) guess=read pop=no geom=allcheck\\Title Card Required\
 \0,1\C,0,1.024872,0.772022,-0.091024\C,0,1.024868,-0.772027,0.091022\C
 ,0,-0.408439,-1.174719,-0.078831\C,0,-1.343203,0.000004,-0.000004\C,0,
 -0.40843,1.174721,0.078841\H,0,1.697516,1.278691,0.615685\H,0,1.398694
 ,1.037633,-1.096417\H,0,1.3987,-1.037644,1.096409\H,0,1.697501,-1.2786
 99,-0.615696\H,0,-2.022861,0.053956,-0.873123\H,0,-2.022885,-0.053944,
 0.873094\H,0,-0.742327,2.206653,0.11941\H,0,-0.742342,-2.20665,-0.1193
 91\\Version=EM64M-G16RevB.01\State=1-A\HF=-193.900369\RMSD=0.000e+00\D
 ipole=0.0314739,0.0000014,-0.0000007\Quadrupole=0.2119776,0.4621088,-0
 .6740863,0.0000164,0.0000011,-0.0422495\PG=C01 [X(C5H8)]\\@


 IT CANNOT BE MY BEAUTY, FOR I HAVE NONE; AND IT CANNOT BE MY WIT,
 FOR HE HAS NOT ENOUGH TO KNOW THAT I HAVE ANY.
 -- CATHARINE SEDLEY, PUZZLED ABOUT WHY SHE WAS MISTRESS TO JAMES II
 Job cpu time:       0 days  0 hours  1 minutes  1.5 seconds.
 Elapsed time:       0 days  0 hours  0 minutes 11.7 seconds.
 File lengths (MBytes):  RWF=      6 Int=      0 D2E=      0 Chk=      2 Scr=      1
 Normal termination of Gaussian 16 at Wed Jun  2 22:25:44 2021.
