 Entering Gaussian System, Link 0=g16
 Initial command:
 /Applications/g16/l1.exe "/Applications/g16/Scratch/Gau-20415.inp" -scrdir="/Applications/g16/Scratch/"
 Entering Link 1 = /Applications/g16/l1.exe PID=     20417.
  
 Copyright (c) 1988-2017, Gaussian, Inc.  All Rights Reserved.
  
 This is part of the Gaussian(R) 16 program.  It is based on
 the Gaussian(R) 09 system (copyright 2009, Gaussian, Inc.),
 the Gaussian(R) 03 system (copyright 2003, Gaussian, Inc.),
 the Gaussian(R) 98 system (copyright 1998, Gaussian, Inc.),
 the Gaussian(R) 94 system (copyright 1995, Gaussian, Inc.),
 the Gaussian 92(TM) system (copyright 1992, Gaussian, Inc.),
 the Gaussian 90(TM) system (copyright 1990, Gaussian, Inc.),
 the Gaussian 88(TM) system (copyright 1988, Gaussian, Inc.),
 the Gaussian 86(TM) system (copyright 1986, Carnegie Mellon
 University), and the Gaussian 82(TM) system (copyright 1983,
 Carnegie Mellon University). Gaussian is a federally registered
 trademark of Gaussian, Inc.
  
 This software contains proprietary and confidential information,
 including trade secrets, belonging to Gaussian, Inc.
  
 This software is provided under written license and may be
 used, copied, transmitted, or stored only in accord with that
 written license.
  
 The following legend is applicable only to US Government
 contracts under FAR:
  
                    RESTRICTED RIGHTS LEGEND
  
 Use, reproduction and disclosure by the US Government is
 subject to restrictions as set forth in subparagraphs (a)
 and (c) of the Commercial Computer Software - Restricted
 Rights clause in FAR 52.227-19.
  
 Gaussian, Inc.
 340 Quinnipiac St., Bldg. 40, Wallingford CT 06492
  
  
 ---------------------------------------------------------------
 Warning -- This program may not be used in any manner that
 competes with the business of Gaussian, Inc. or will provide
 assistance to any competitor of Gaussian, Inc.  The licensee
 of this program is prohibited from giving any competitor of
 Gaussian, Inc. access to this program.  By using this program,
 the user acknowledges that Gaussian, Inc. is engaged in the
 business of creating and licensing software in the field of
 computational chemistry and represents and warrants to the
 licensee that it is not a competitor of Gaussian, Inc. and that
 it will not use this program in any manner prohibited above.
 ---------------------------------------------------------------
  

 Cite this work as:
 Gaussian 16, Revision B.01,
 M. J. Frisch, G. W. Trucks, H. B. Schlegel, G. E. Scuseria, 
 M. A. Robb, J. R. Cheeseman, G. Scalmani, V. Barone, 
 G. A. Petersson, H. Nakatsuji, X. Li, M. Caricato, A. V. Marenich, 
 J. Bloino, B. G. Janesko, R. Gomperts, B. Mennucci, H. P. Hratchian, 
 J. V. Ortiz, A. F. Izmaylov, J. L. Sonnenberg, D. Williams-Young, 
 F. Ding, F. Lipparini, F. Egidi, J. Goings, B. Peng, A. Petrone, 
 T. Henderson, D. Ranasinghe, V. G. Zakrzewski, J. Gao, N. Rega, 
 G. Zheng, W. Liang, M. Hada, M. Ehara, K. Toyota, R. Fukuda, 
 J. Hasegawa, M. Ishida, T. Nakajima, Y. Honda, O. Kitao, H. Nakai, 
 T. Vreven, K. Throssell, J. A. Montgomery, Jr., J. E. Peralta, 
 F. Ogliaro, M. J. Bearpark, J. J. Heyd, E. N. Brothers, K. N. Kudin, 
 V. N. Staroverov, T. A. Keith, R. Kobayashi, J. Normand, 
 K. Raghavachari, A. P. Rendell, J. C. Burant, S. S. Iyengar, 
 J. Tomasi, M. Cossi, J. M. Millam, M. Klene, C. Adamo, R. Cammi, 
 J. W. Ochterski, R. L. Martin, K. Morokuma, O. Farkas, 
 J. B. Foresman, and D. J. Fox, Gaussian, Inc., Wallingford CT, 2016.
 
 ******************************************
 Gaussian 16:  EM64M-G16RevB.01 20-Dec-2017
                 2-Jun-2021 
 ******************************************
 %nprocshared=6
 Will use up to    6 processors via shared memory.
 %mem=8GB
 %chk=drch_1_1.chk
 ---------------
 #p rhf/6-31g(d)
 ---------------
 1/38=1,172=1/1;
 2/12=2,17=6,18=5,40=1/2;
 3/5=1,6=6,7=1,11=1,25=1,30=1,116=1/1,2,3;
 4//1;
 5/5=2,38=5/2;
 6/7=2,8=2,9=2,10=2,28=1/1;
 99/5=1,9=1/99;
 Leave Link    1 at Wed Jun  2 22:11:06 2021, MaxMem=  1073741824 cpu:               0.1 elap:               0.0
 (Enter /Applications/g16/l101.exe)
 -------------------
 Title Card Required
 -------------------
 Symbolic Z-matrix:
 Charge =  0 Multiplicity = 1
 C                     1.02487   0.77202  -0.09102 
 C                     1.02487  -0.77203   0.09102 
 C                    -0.40844  -1.17472  -0.07883 
 C                    -1.3432    0.       0. 
 C                    -0.40843   1.17472   0.07884 
 H                     1.69752   1.27869   0.61569 
 H                     1.39869   1.03763  -1.09642 
 H                     1.3987   -1.03764   1.09641 
 H                     1.6975   -1.2787   -0.6157 
 H                    -2.02286   0.05396  -0.87312 
 H                    -2.02289  -0.05394   0.87309 
 H                    -0.74233   2.20665   0.11941 
 H                    -0.74234  -2.20665  -0.11939 
 
 ITRead=  0  0  0  0  0  0  0  0  0  0  0  0  0
 MicOpt= -1 -1 -1 -1 -1 -1 -1 -1 -1 -1 -1 -1 -1
 NAtoms=     13 NQM=       13 NQMF=       0 NMMI=      0 NMMIF=      0
                NMic=       0 NMicF=      0.
                    Isotopes and Nuclear Properties:
 (Nuclear quadrupole moments (NQMom) in fm**2, nuclear magnetic moments (NMagM)
  in nuclear magnetons)

  Atom         1           2           3           4           5           6           7           8           9          10
 IAtWgt=          12          12          12          12          12           1           1           1           1           1
 AtmWgt=  12.0000000  12.0000000  12.0000000  12.0000000  12.0000000   1.0078250   1.0078250   1.0078250   1.0078250   1.0078250
 NucSpn=           0           0           0           0           0           1           1           1           1           1
 AtZEff=  -0.0000000  -0.0000000  -0.0000000  -0.0000000  -0.0000000  -0.0000000  -0.0000000  -0.0000000  -0.0000000  -0.0000000
 NQMom=    0.0000000   0.0000000   0.0000000   0.0000000   0.0000000   0.0000000   0.0000000   0.0000000   0.0000000   0.0000000
 NMagM=    0.0000000   0.0000000   0.0000000   0.0000000   0.0000000   2.7928460   2.7928460   2.7928460   2.7928460   2.7928460
 AtZNuc=   6.0000000   6.0000000   6.0000000   6.0000000   6.0000000   1.0000000   1.0000000   1.0000000   1.0000000   1.0000000

  Atom        11          12          13
 IAtWgt=           1           1           1
 AtmWgt=   1.0078250   1.0078250   1.0078250
 NucSpn=           1           1           1
 AtZEff=  -0.0000000  -0.0000000  -0.0000000
 NQMom=    0.0000000   0.0000000   0.0000000
 NMagM=    2.7928460   2.7928460   2.7928460
 AtZNuc=   1.0000000   1.0000000   1.0000000
 Leave Link  101 at Wed Jun  2 22:11:06 2021, MaxMem=  1073741824 cpu:               0.7 elap:               0.1
 (Enter /Applications/g16/l202.exe)
                          Input orientation:                          
 ---------------------------------------------------------------------
 Center     Atomic      Atomic             Coordinates (Angstroms)
 Number     Number       Type             X           Y           Z
 ---------------------------------------------------------------------
      1          6           0        1.024872    0.772022   -0.091024
      2          6           0        1.024868   -0.772027    0.091022
      3          6           0       -0.408439   -1.174719   -0.078831
      4          6           0       -1.343203    0.000004   -0.000004
      5          6           0       -0.408430    1.174721    0.078841
      6          1           0        1.697516    1.278691    0.615685
      7          1           0        1.398694    1.037633   -1.096417
      8          1           0        1.398700   -1.037644    1.096409
      9          1           0        1.697501   -1.278699   -0.615696
     10          1           0       -2.022861    0.053956   -0.873123
     11          1           0       -2.022885   -0.053944    0.873094
     12          1           0       -0.742327    2.206653    0.119410
     13          1           0       -0.742342   -2.206650   -0.119391
 ---------------------------------------------------------------------
                    Distance matrix (angstroms):
                    1          2          3          4          5
     1  C    0.000000
     2  C    1.554744   0.000000
     3  C    2.417505   1.498459   0.000000
     4  C    2.492404   2.492404   1.503320   0.000000
     5  C    1.498458   2.417503   2.354725   1.503322   0.000000
     6  H    1.099364   2.221074   3.307056   3.355605   2.175780
     7  H    1.105037   2.196503   3.032443   3.129983   2.160028
     8  H    2.196505   1.105037   2.160030   3.129995   3.032445
     9  H    2.221073   1.099364   2.175780   3.355598   3.307053
    10  H    3.227379   3.301587   2.178738   1.107783   2.183744
    11  H    3.301601   3.227395   2.183743   1.107781   2.178743
    12  H    2.285922   3.463570   3.403595   2.290112   1.085365
    13  H    3.463573   2.285924   1.085365   2.290111   3.403596
                    6          7          8          9         10
     6  H    0.000000
     7  H    1.754622   0.000000
     8  H    2.384490   3.019149   0.000000
     9  H    2.838405   2.384486   1.754620   0.000000
    10  H    4.190195   3.567144   4.096062   3.960219   0.000000
    11  H    3.960247   4.096061   3.567181   4.190202   1.749547
    12  H    2.657111   2.725585   4.007990   4.317502   2.694252
    13  H    4.317505   4.007990   2.725584   2.657112   2.705214
                   11         12         13
    11  H    0.000000
    12  H    2.705211   0.000000
    13  H    2.694246   4.419759   0.000000
 Stoichiometry    C5H8
 Framework group  C1[X(C5H8)]
 Deg. of freedom    33
 Full point group                 C1      NOp   1
 Largest Abelian subgroup         C1      NOp   1
 Largest concise Abelian subgroup C1      NOp   1
                         Standard orientation:                         
 ---------------------------------------------------------------------
 Center     Atomic      Atomic             Coordinates (Angstroms)
 Number     Number       Type             X           Y           Z
 ---------------------------------------------------------------------
      1          6           0        1.024873   -0.772021    0.091024
      2          6           0        1.024867    0.772028   -0.091022
      3          6           0       -0.408440    1.174719    0.078831
      4          6           0       -1.343203   -0.000005    0.000004
      5          6           0       -0.408429   -1.174721   -0.078841
      6          1           0        1.697517   -1.278689   -0.615685
      7          1           0        1.398695   -1.037631    1.096417
      8          1           0        1.398699    1.037646   -1.096409
      9          1           0        1.697500    1.278701    0.615696
     10          1           0       -2.022861   -0.053958    0.873123
     11          1           0       -2.022885    0.053942   -0.873094
     12          1           0       -0.742325   -2.206654   -0.119410
     13          1           0       -0.742344    2.206649    0.119391
 ---------------------------------------------------------------------
 Rotational constants (GHZ):           7.4527778           6.7324824           3.8090596
 Leave Link  202 at Wed Jun  2 22:11:06 2021, MaxMem=  1073741824 cpu:               0.0 elap:               0.0
 (Enter /Applications/g16/l301.exe)
 Standard basis: 6-31G(d) (6D, 7F)
 Ernie: Thresh=  0.10000D-02 Tol=  0.10000D-05 Strict=F.
 There are    91 symmetry adapted cartesian basis functions of A   symmetry.
 There are    91 symmetry adapted basis functions of A   symmetry.
    91 basis functions,   172 primitive gaussians,    91 cartesian basis functions
    19 alpha electrons       19 beta electrons
       nuclear repulsion energy       168.7600533234 Hartrees.
 IExCor=    0 DFT=F Ex=HF Corr=None ExCW=0 ScaHFX=  1.000000
 ScaDFX=  1.000000  1.000000  1.000000  1.000000 ScalE2=  1.000000  1.000000
 IRadAn=      5 IRanWt=     -1 IRanGd=            0 ICorTp=0 IEmpDi=  4
 NAtoms=   13 NActive=   13 NUniq=   13 SFac= 1.00D+00 NAtFMM=   60 NAOKFM=F Big=F
 Integral buffers will be    131072 words long.
 Raffenetti 1 integral format.
 Two-electron integral symmetry is turned on.
 Leave Link  301 at Wed Jun  2 22:11:06 2021, MaxMem=  1073741824 cpu:               0.1 elap:               0.0
 (Enter /Applications/g16/l302.exe)
 NPDir=0 NMtPBC=     1 NCelOv=     1 NCel=       1 NClECP=     1 NCelD=      1
         NCelK=      1 NCelE2=     1 NClLst=     1 CellRange=     0.0.
 One-electron integrals computed using PRISM.
 One-electron integral symmetry used in STVInt
 NBasis=    91 RedAO= T EigKep=  3.84D-03  NBF=    91
 NBsUse=    91 1.00D-06 EigRej= -1.00D+00 NBFU=    91
 Leave Link  302 at Wed Jun  2 22:11:06 2021, MaxMem=  1073741824 cpu:               0.5 elap:               0.1
 (Enter /Applications/g16/l303.exe)
 DipDrv:  MaxL=1.
 Leave Link  303 at Wed Jun  2 22:11:06 2021, MaxMem=  1073741824 cpu:               0.1 elap:               0.0
 (Enter /Applications/g16/l401.exe)
 ExpMin= 1.61D-01 ExpMax= 3.05D+03 ExpMxC= 4.57D+02 IAcc=3 IRadAn=         5 AccDes= 0.00D+00
 Harris functional with IExCor=  205 and IRadAn=       5 diagonalized for initial guess.
 HarFok:  IExCor=  205 AccDes= 0.00D+00 IRadAn=         5 IDoV= 1 UseB2=F ITyADJ=14
 ICtDFT=  3500011 ScaDFX=  1.000000  1.000000  1.000000  1.000000
 FoFCou: FMM=F IPFlag=           0 FMFlag=      100000 FMFlg1=           0
         NFxFlg=           0 DoJE=T BraDBF=F KetDBF=T FulRan=T
         wScrn=  0.000000 ICntrl=       500 IOpCl=  0 I1Cent=   200000004 NGrid=           0
         NMat0=    1 NMatS0=      1 NMatT0=    0 NMatD0=    1 NMtDS0=    0 NMtDT0=    0
 Petite list used in FoFCou.
 Harris En= -194.247758520852    
 JPrj=0 DoOrth=F DoCkMO=F.
 Leave Link  401 at Wed Jun  2 22:11:06 2021, MaxMem=  1073741824 cpu:               1.7 elap:               0.3
 (Enter /Applications/g16/l502.exe)
 Keep R1 ints in memory in canonical form, NReq=9639594.
 FoFCou: FMM=F IPFlag=           0 FMFlag=           0 FMFlg1=           0
         NFxFlg=           0 DoJE=F BraDBF=F KetDBF=F FulRan=T
         wScrn=  0.000000 ICntrl=       600 IOpCl=  0 I1Cent=           0 NGrid=           0
         NMat0=    1 NMatS0=   4186 NMatT0=    0 NMatD0=    1 NMtDS0=    0 NMtDT0=    0
 Symmetry not used in FoFCou.
 Two-electron integral symmetry not used.
 Closed shell SCF:
 Using DIIS extrapolation, IDIIS=  1040.
 NGot=  1073741824 LenX=  1064960083 LenY=  1064951361
 Requested convergence on RMS density matrix=1.00D-08 within 128 cycles.
 Requested convergence on MAX density matrix=1.00D-06.
 Requested convergence on             energy=1.00D-06.
 No special actions if energy rises.

 Cycle   1  Pass 1  IDiag  1:
 E= -193.471560850542    
 DIIS: error= 6.05D-02 at cycle   1 NSaved=   1.
 NSaved= 1 IEnMin= 1 EnMin= -193.471560850542     IErMin= 1 ErrMin= 6.05D-02
 ErrMax= 6.05D-02  0.00D+00 EMaxC= 1.00D-01 BMatC= 3.71D-01 BMatP= 3.71D-01
 IDIUse=3 WtCom= 3.95D-01 WtEn= 6.05D-01
 Coeff-Com:  0.100D+01
 Coeff-En:   0.100D+01
 Coeff:      0.100D+01
 Gap=     0.187 Goal=   None    Shift=    0.000
 GapD=    0.187 DampG=1.000 DampE=0.500 DampFc=0.5000 IDamp=-1.
 Damping current iteration by 5.00D-01
 RMSDP=7.89D-03 MaxDP=1.22D-01              OVMax= 1.51D-01

 Cycle   2  Pass 1  IDiag  1:
 E= -193.621398062476     Delta-E=       -0.149837211934 Rises=F Damp=T
 DIIS: error= 3.74D-02 at cycle   2 NSaved=   2.
 NSaved= 2 IEnMin= 2 EnMin= -193.621398062476     IErMin= 2 ErrMin= 3.74D-02
 ErrMax= 3.74D-02  0.00D+00 EMaxC= 1.00D-01 BMatC= 7.36D-02 BMatP= 3.71D-01
 IDIUse=3 WtCom= 6.26D-01 WtEn= 3.74D-01
 Coeff-Com: -0.559D+00 0.156D+01
 Coeff-En:   0.000D+00 0.100D+01
 Coeff:     -0.350D+00 0.135D+01
 Gap=     0.195 Goal=   None    Shift=    0.000
 RMSDP=2.57D-03 MaxDP=3.09D-02 DE=-1.50D-01 OVMax= 4.68D-02

 Cycle   3  Pass 1  IDiag  1:
 E= -193.752751675822     Delta-E=       -0.131353613346 Rises=F Damp=F
 DIIS: error= 3.39D-03 at cycle   3 NSaved=   3.
 NSaved= 3 IEnMin= 3 EnMin= -193.752751675822     IErMin= 3 ErrMin= 3.39D-03
 ErrMax= 3.39D-03  0.00D+00 EMaxC= 1.00D-01 BMatC= 6.12D-04 BMatP= 7.36D-02
 IDIUse=3 WtCom= 9.66D-01 WtEn= 3.39D-02
 Coeff-Com: -0.204D-01-0.703D-02 0.103D+01
 Coeff-En:   0.000D+00 0.000D+00 0.100D+01
 Coeff:     -0.197D-01-0.679D-02 0.103D+01
 Gap=     0.193 Goal=   None    Shift=    0.000
 RMSDP=3.67D-04 MaxDP=5.16D-03 DE=-1.31D-01 OVMax= 8.88D-03

 Cycle   4  Pass 1  IDiag  1:
 E= -193.753421901129     Delta-E=       -0.000670225307 Rises=F Damp=F
 DIIS: error= 7.64D-04 at cycle   4 NSaved=   4.
 NSaved= 4 IEnMin= 4 EnMin= -193.753421901129     IErMin= 4 ErrMin= 7.64D-04
 ErrMax= 7.64D-04  0.00D+00 EMaxC= 1.00D-01 BMatC= 3.01D-05 BMatP= 6.12D-04
 IDIUse=3 WtCom= 9.92D-01 WtEn= 7.64D-03
 Coeff-Com:  0.781D-02-0.191D-01-0.611D-05 0.101D+01
 Coeff-En:   0.000D+00 0.000D+00 0.000D+00 0.100D+01
 Coeff:      0.775D-02-0.189D-01-0.606D-05 0.101D+01
 Gap=     0.193 Goal=   None    Shift=    0.000
 RMSDP=1.29D-04 MaxDP=1.27D-03 DE=-6.70D-04 OVMax= 2.06D-03

 Cycle   5  Pass 1  IDiag  1:
 E= -193.753477903272     Delta-E=       -0.000056002143 Rises=F Damp=F
 DIIS: error= 3.39D-04 at cycle   5 NSaved=   5.
 NSaved= 5 IEnMin= 5 EnMin= -193.753477903272     IErMin= 5 ErrMin= 3.39D-04
 ErrMax= 3.39D-04  0.00D+00 EMaxC= 1.00D-01 BMatC= 3.58D-06 BMatP= 3.01D-05
 IDIUse=3 WtCom= 9.97D-01 WtEn= 3.39D-03
 Coeff-Com:  0.237D-02-0.176D-02-0.643D-01 0.147D-01 0.105D+01
 Coeff-En:   0.000D+00 0.000D+00 0.000D+00 0.000D+00 0.100D+01
 Coeff:      0.236D-02-0.176D-02-0.641D-01 0.147D-01 0.105D+01
 Gap=     0.193 Goal=   None    Shift=    0.000
 RMSDP=5.22D-05 MaxDP=6.10D-04 DE=-5.60D-05 OVMax= 1.28D-03

 Cycle   6  Pass 1  IDiag  1:
 E= -193.753485907589     Delta-E=       -0.000008004316 Rises=F Damp=F
 DIIS: error= 8.26D-05 at cycle   6 NSaved=   6.
 NSaved= 6 IEnMin= 6 EnMin= -193.753485907589     IErMin= 6 ErrMin= 8.26D-05
 ErrMax= 8.26D-05  0.00D+00 EMaxC= 1.00D-01 BMatC= 3.57D-07 BMatP= 3.58D-06
 IDIUse=1 WtCom= 1.00D+00 WtEn= 0.00D+00
 Coeff-Com:  0.464D-04 0.635D-03-0.975D-02-0.901D-01 0.167D+00 0.932D+00
 Coeff:      0.464D-04 0.635D-03-0.975D-02-0.901D-01 0.167D+00 0.932D+00
 Gap=     0.193 Goal=   None    Shift=    0.000
 RMSDP=1.65D-05 MaxDP=1.94D-04 DE=-8.00D-06 OVMax= 3.18D-04

 Cycle   7  Pass 1  IDiag  1:
 E= -193.753486671496     Delta-E=       -0.000000763907 Rises=F Damp=F
 DIIS: error= 1.74D-05 at cycle   7 NSaved=   7.
 NSaved= 7 IEnMin= 7 EnMin= -193.753486671496     IErMin= 7 ErrMin= 1.74D-05
 ErrMax= 1.74D-05  0.00D+00 EMaxC= 1.00D-01 BMatC= 2.54D-08 BMatP= 3.57D-07
 IDIUse=1 WtCom= 1.00D+00 WtEn= 0.00D+00
 Coeff-Com: -0.409D-04-0.131D-03 0.450D-02 0.681D-02-0.609D-01-0.117D+00
 Coeff-Com:  0.117D+01
 Coeff:     -0.409D-04-0.131D-03 0.450D-02 0.681D-02-0.609D-01-0.117D+00
 Coeff:      0.117D+01
 Gap=     0.193 Goal=   None    Shift=    0.000
 RMSDP=6.56D-06 MaxDP=1.08D-04 DE=-7.64D-07 OVMax= 2.02D-04

 Cycle   8  Pass 1  IDiag  1:
 E= -193.753486737669     Delta-E=       -0.000000066173 Rises=F Damp=F
 DIIS: error= 1.58D-05 at cycle   8 NSaved=   8.
 NSaved= 8 IEnMin= 8 EnMin= -193.753486737669     IErMin= 8 ErrMin= 1.58D-05
 ErrMax= 1.58D-05  0.00D+00 EMaxC= 1.00D-01 BMatC= 2.31D-08 BMatP= 2.54D-08
 IDIUse=1 WtCom= 1.00D+00 WtEn= 0.00D+00
 Coeff-Com: -0.266D-04-0.229D-03 0.486D-02 0.225D-01-0.714D-01-0.266D+00
 Coeff-Com:  0.733D+00 0.578D+00
 Coeff:     -0.266D-04-0.229D-03 0.486D-02 0.225D-01-0.714D-01-0.266D+00
 Coeff:      0.733D+00 0.578D+00
 Gap=     0.193 Goal=   None    Shift=    0.000
 RMSDP=2.83D-06 MaxDP=4.75D-05 DE=-6.62D-08 OVMax= 1.19D-04

 Cycle   9  Pass 1  IDiag  1:
 E= -193.753486770525     Delta-E=       -0.000000032856 Rises=F Damp=F
 DIIS: error= 4.83D-06 at cycle   9 NSaved=   9.
 NSaved= 9 IEnMin= 9 EnMin= -193.753486770525     IErMin= 9 ErrMin= 4.83D-06
 ErrMax= 4.83D-06  0.00D+00 EMaxC= 1.00D-01 BMatC= 8.03D-10 BMatP= 2.31D-08
 IDIUse=1 WtCom= 1.00D+00 WtEn= 0.00D+00
 Coeff-Com:  0.992D-05 0.307D-04-0.103D-02-0.225D-02 0.146D-01 0.336D-01
 Coeff-Com: -0.221D+00-0.385D-01 0.121D+01
 Coeff:      0.992D-05 0.307D-04-0.103D-02-0.225D-02 0.146D-01 0.336D-01
 Coeff:     -0.221D+00-0.385D-01 0.121D+01
 Gap=     0.193 Goal=   None    Shift=    0.000
 RMSDP=1.35D-06 MaxDP=2.88D-05 DE=-3.29D-08 OVMax= 3.76D-05

 Cycle  10  Pass 1  IDiag  1:
 E= -193.753486774309     Delta-E=       -0.000000003784 Rises=F Damp=F
 DIIS: error= 2.49D-06 at cycle  10 NSaved=  10.
 NSaved=10 IEnMin=10 EnMin= -193.753486774309     IErMin=10 ErrMin= 2.49D-06
 ErrMax= 2.49D-06  0.00D+00 EMaxC= 1.00D-01 BMatC= 1.42D-10 BMatP= 8.03D-10
 IDIUse=1 WtCom= 1.00D+00 WtEn= 0.00D+00
 Coeff-Com:  0.337D-05 0.406D-04-0.858D-03-0.345D-02 0.121D-01 0.421D-01
 Coeff-Com: -0.134D+00-0.914D-01 0.154D+00 0.102D+01
 Coeff:      0.337D-05 0.406D-04-0.858D-03-0.345D-02 0.121D-01 0.421D-01
 Coeff:     -0.134D+00-0.914D-01 0.154D+00 0.102D+01
 Gap=     0.193 Goal=   None    Shift=    0.000
 RMSDP=5.08D-07 MaxDP=1.11D-05 DE=-3.78D-09 OVMax= 1.84D-05

 Cycle  11  Pass 1  IDiag  1:
 E= -193.753486775010     Delta-E=       -0.000000000701 Rises=F Damp=F
 DIIS: error= 1.20D-06 at cycle  11 NSaved=  11.
 NSaved=11 IEnMin=11 EnMin= -193.753486775010     IErMin=11 ErrMin= 1.20D-06
 ErrMax= 1.20D-06  0.00D+00 EMaxC= 1.00D-01 BMatC= 2.48D-11 BMatP= 1.42D-10
 IDIUse=1 WtCom= 1.00D+00 WtEn= 0.00D+00
 Coeff-Com: -0.503D-05-0.197D-04 0.562D-03 0.199D-02-0.830D-02-0.249D-01
 Coeff-Com:  0.105D+00 0.429D-01-0.320D+00-0.401D+00 0.160D+01
 Coeff:     -0.503D-05-0.197D-04 0.562D-03 0.199D-02-0.830D-02-0.249D-01
 Coeff:      0.105D+00 0.429D-01-0.320D+00-0.401D+00 0.160D+01
 Gap=     0.193 Goal=   None    Shift=    0.000
 RMSDP=3.26D-07 MaxDP=5.75D-06 DE=-7.01D-10 OVMax= 1.33D-05

 Cycle  12  Pass 1  IDiag  1:
 E= -193.753486775190     Delta-E=       -0.000000000180 Rises=F Damp=F
 DIIS: error= 2.48D-07 at cycle  12 NSaved=  12.
 NSaved=12 IEnMin=12 EnMin= -193.753486775190     IErMin=12 ErrMin= 2.48D-07
 ErrMax= 2.48D-07  0.00D+00 EMaxC= 1.00D-01 BMatC= 1.34D-12 BMatP= 2.48D-11
 IDIUse=1 WtCom= 1.00D+00 WtEn= 0.00D+00
 Coeff-Com:  0.117D-05 0.177D-05-0.787D-04-0.269D-03 0.121D-02 0.354D-02
 Coeff-Com: -0.173D-01-0.671D-02 0.767D-01 0.299D-01-0.444D+00 0.136D+01
 Coeff:      0.117D-05 0.177D-05-0.787D-04-0.269D-03 0.121D-02 0.354D-02
 Coeff:     -0.173D-01-0.671D-02 0.767D-01 0.299D-01-0.444D+00 0.136D+01
 Gap=     0.193 Goal=   None    Shift=    0.000
 RMSDP=7.18D-08 MaxDP=8.71D-07 DE=-1.80D-10 OVMax= 2.70D-06

 Cycle  13  Pass 1  IDiag  1:
 E= -193.753486775194     Delta-E=       -0.000000000004 Rises=F Damp=F
 DIIS: error= 4.59D-08 at cycle  13 NSaved=  13.
 NSaved=13 IEnMin=13 EnMin= -193.753486775194     IErMin=13 ErrMin= 4.59D-08
 ErrMax= 4.59D-08  0.00D+00 EMaxC= 1.00D-01 BMatC= 1.44D-13 BMatP= 1.34D-12
 IDIUse=1 WtCom= 1.00D+00 WtEn= 0.00D+00
 Coeff-Com:  0.142D-06 0.762D-06-0.202D-04-0.820D-04 0.307D-03 0.981D-03
 Coeff-Com: -0.304D-02-0.318D-02 0.641D-02 0.208D-01-0.472D-02-0.350D+00
 Coeff-Com:  0.133D+01
 Coeff:      0.142D-06 0.762D-06-0.202D-04-0.820D-04 0.307D-03 0.981D-03
 Coeff:     -0.304D-02-0.318D-02 0.641D-02 0.208D-01-0.472D-02-0.350D+00
 Coeff:      0.133D+01
 Gap=     0.193 Goal=   None    Shift=    0.000
 RMSDP=2.01D-08 MaxDP=2.35D-07 DE=-4.43D-12 OVMax= 6.17D-07

 Cycle  14  Pass 1  IDiag  1:
 E= -193.753486775197     Delta-E=       -0.000000000003 Rises=F Damp=F
 DIIS: error= 2.47D-08 at cycle  14 NSaved=  14.
 NSaved=14 IEnMin=14 EnMin= -193.753486775197     IErMin=14 ErrMin= 2.47D-08
 ErrMax= 2.47D-08  0.00D+00 EMaxC= 1.00D-01 BMatC= 4.54D-14 BMatP= 1.44D-13
 IDIUse=1 WtCom= 1.00D+00 WtEn= 0.00D+00
 Coeff-Com: -0.148D-06-0.407D-06 0.135D-04 0.502D-04-0.201D-03-0.648D-03
 Coeff-Com:  0.271D-02 0.263D-03-0.569D-02-0.124D-01 0.338D-01 0.474D-01
 Coeff-Com: -0.543D+00 0.148D+01
 Coeff:     -0.148D-06-0.407D-06 0.135D-04 0.502D-04-0.201D-03-0.648D-03
 Coeff:      0.271D-02 0.263D-03-0.569D-02-0.124D-01 0.338D-01 0.474D-01
 Coeff:     -0.543D+00 0.148D+01
 Gap=     0.193 Goal=   None    Shift=    0.000
 RMSDP=7.78D-09 MaxDP=1.12D-07 DE=-2.90D-12 OVMax= 3.43D-07

 SCF Done:  E(RHF) =  -193.753486775     A.U. after   14 cycles
            NFock= 14  Conv=0.78D-08     -V/T= 2.0018
 KE= 1.934085142204D+02 PE=-7.882699812514D+02 EE= 2.323479269324D+02
 Leave Link  502 at Wed Jun  2 22:11:07 2021, MaxMem=  1073741824 cpu:               1.9 elap:               0.5
 (Enter /Applications/g16/l601.exe)
 Copying SCF densities to generalized density rwf, IOpCl= 0 IROHF=0.

 **********************************************************************

            Population analysis using the SCF Density.

 **********************************************************************

 Orbital symmetries:
       Occupied  (A) (A) (A) (A) (A) (A) (A) (A) (A) (A) (A) (A)
                 (A) (A) (A) (A) (A) (A) (A)
       Virtual   (A) (A) (A) (A) (A) (A) (A) (A) (A) (A) (A) (A)
                 (A) (A) (A) (A) (A) (A) (A) (A) (A) (A) (A) (A)
                 (A) (A) (A) (A) (A) (A) (A) (A) (A) (A) (A) (A)
                 (A) (A) (A) (A) (A) (A) (A) (A) (A) (A) (A) (A)
                 (A) (A) (A) (A) (A) (A) (A) (A) (A) (A) (A) (A)
                 (A) (A) (A) (A) (A) (A) (A) (A) (A) (A) (A) (A)
 The electronic state is 1-A.
 Alpha  occ. eigenvalues --  -11.23857 -11.22230 -11.22229 -11.22146 -11.22100
 Alpha  occ. eigenvalues --   -1.10835  -0.96871  -0.92982  -0.75292  -0.74153
 Alpha  occ. eigenvalues --   -0.65598  -0.61343  -0.55644  -0.50367  -0.50130
 Alpha  occ. eigenvalues --   -0.49421  -0.48852  -0.47378  -0.16854
 Alpha virt. eigenvalues --    0.02441   0.24314   0.28231   0.29493   0.30635
 Alpha virt. eigenvalues --    0.31877   0.32301   0.32683   0.36107   0.38094
 Alpha virt. eigenvalues --    0.38153   0.46516   0.46757   0.58092   0.76147
 Alpha virt. eigenvalues --    0.77041   0.78412   0.81138   0.82958   0.83029
 Alpha virt. eigenvalues --    0.85867   0.89425   0.89802   0.92968   0.96262
 Alpha virt. eigenvalues --    0.97466   1.05102   1.09596   1.11882   1.12483
 Alpha virt. eigenvalues --    1.13398   1.13909   1.17004   1.18375   1.18744
 Alpha virt. eigenvalues --    1.21671   1.23133   1.23603   1.44888   1.46465
 Alpha virt. eigenvalues --    1.66337   1.68447   1.72456   1.87054   1.94091
 Alpha virt. eigenvalues --    2.04171   2.12588   2.12777   2.20255   2.20827
 Alpha virt. eigenvalues --    2.28945   2.29454   2.36880   2.37337   2.41452
 Alpha virt. eigenvalues --    2.44588   2.57105   2.64658   2.70809   2.76416
 Alpha virt. eigenvalues --    2.77387   2.80863   2.93914   2.94795   3.00391
 Alpha virt. eigenvalues --    3.06872   3.24291   4.52783   4.59816   4.68571
 Alpha virt. eigenvalues --    4.91130   4.96309
          Condensed to atoms (all electrons):
               1          2          3          4          5          6
     1  C    5.065880   0.337418  -0.052316  -0.071408   0.364558   0.400130
     2  C    0.337418   5.065885   0.364557  -0.071408  -0.052316  -0.033295
     3  C   -0.052316   0.364557   5.441248   0.404151  -0.183939   0.004965
     4  C   -0.071408  -0.071408   0.404151   5.080582   0.404153   0.002579
     5  C    0.364558  -0.052316  -0.183939   0.404153   5.441251  -0.034112
     6  H    0.400130  -0.033295   0.004965   0.002579  -0.034112   0.525275
     7  H    0.382500  -0.044533   0.009727   0.004157  -0.069608  -0.035420
     8  H   -0.044531   0.382498  -0.069606   0.004157   0.009727  -0.009957
     9  H   -0.033295   0.400130  -0.034112   0.002579   0.004965   0.002572
    10  H    0.001699   0.002561  -0.014327   0.353090  -0.021457  -0.000020
    11  H    0.002561   0.001699  -0.021457   0.353092  -0.014328  -0.000207
    12  H   -0.031483   0.003501   0.003426  -0.032635   0.389016  -0.000166
    13  H    0.003501  -0.031483   0.389015  -0.032635   0.003426  -0.000049
               7          8          9         10         11         12
     1  C    0.382500  -0.044531  -0.033295   0.001699   0.002561  -0.031483
     2  C   -0.044533   0.382498   0.400130   0.002561   0.001699   0.003501
     3  C    0.009727  -0.069606  -0.034112  -0.014327  -0.021457   0.003426
     4  C    0.004157   0.004157   0.002579   0.353090   0.353092  -0.032635
     5  C   -0.069608   0.009727   0.004965  -0.021457  -0.014328   0.389016
     6  H   -0.035420  -0.009957   0.002572  -0.000020  -0.000207  -0.000166
     7  H    0.595197   0.007508  -0.009957  -0.000164   0.000078  -0.000903
     8  H    0.007508   0.595193  -0.035420   0.000078  -0.000164  -0.000201
     9  H   -0.009957  -0.035420   0.525275  -0.000207  -0.000020  -0.000049
    10  H   -0.000164   0.000078  -0.000207   0.449955  -0.016117   0.000183
    11  H    0.000078  -0.000164  -0.000020  -0.016117   0.449955  -0.000224
    12  H   -0.000903  -0.000201  -0.000049   0.000183  -0.000224   0.487091
    13  H   -0.000201  -0.000903  -0.000166  -0.000224   0.000183  -0.000059
              13
     1  C    0.003501
     2  C   -0.031483
     3  C    0.389015
     4  C   -0.032635
     5  C    0.003426
     6  H   -0.000049
     7  H   -0.000201
     8  H   -0.000903
     9  H   -0.000166
    10  H   -0.000224
    11  H    0.000183
    12  H   -0.000059
    13  H    0.487089
 Mulliken charges:
               1
     1  C   -0.325214
     2  C   -0.325215
     3  C   -0.241334
     4  C   -0.400453
     5  C   -0.241338
     6  H    0.177704
     7  H    0.161619
     8  H    0.161620
     9  H    0.177705
    10  H    0.244950
    11  H    0.244948
    12  H    0.182503
    13  H    0.182505
 Sum of Mulliken charges =  -0.00000
 Mulliken charges with hydrogens summed into heavy atoms:
               1
     1  C    0.014109
     2  C    0.014110
     3  C   -0.058829
     4  C    0.089445
     5  C   -0.058835
 Electronic spatial extent (au):  <R**2>=            385.3163
 Charge=              0.0000 electrons
 Dipole moment (field-independent basis, Debye):
    X=             -0.6389    Y=              0.0001    Z=              0.0000  Tot=              0.6389
 Quadrupole moment (field-independent basis, Debye-Ang):
   XX=            -28.7226   YY=            -32.7149   ZZ=            -33.3632
   XY=             -0.0000   XZ=             -0.0001   YZ=             -0.1412
 Traceless Quadrupole moment (field-independent basis, Debye-Ang):
   XX=              2.8776   YY=             -1.1147   ZZ=             -1.7630
   XY=             -0.0000   XZ=             -0.0001   YZ=             -0.1412
 Octapole moment (field-independent basis, Debye-Ang**2):
  XXX=             -6.4876  YYY=              0.0002  ZZZ=              0.0001  XYY=              0.1652
  XXY=              0.0000  XXZ=              0.0000  XZZ=             -0.0404  YZZ=              0.0001
  YYZ=             -0.0000  XYZ=              0.6636
 Hexadecapole moment (field-independent basis, Debye-Ang**3):
 XXXX=           -235.6692 YYYY=           -217.0082 ZZZZ=            -57.7139 XXXY=              0.0001
 XXXZ=             -0.0001 YYYX=             -0.0001 YYYZ=              1.6686 ZZZX=             -0.0001
 ZZZY=             -1.8775 XXYY=            -79.1531 XXZZ=            -45.5381 YYZZ=            -52.1682
 XXYZ=              1.2269 YYXZ=              0.0000 ZZXY=              0.0001
 N-N= 1.687600533234D+02 E-N=-7.882699813217D+02  KE= 1.934085142204D+02
 No NMR shielding tensors so no spin-rotation constants.
 Leave Link  601 at Wed Jun  2 22:11:07 2021, MaxMem=  1073741824 cpu:               0.4 elap:               0.1
 (Enter /Applications/g16/l9999.exe)
 1\1\GINC-MAC-MINI\SP\RHF\6-31G(d)\C5H8\TETSU\02-Jun-2021\0\\#p rhf/6-3
 1g(d)\\Title Card Required\\0,1\C,0,1.024872,0.772022,-0.091024\C,0,1.
 024868,-0.772027,0.091022\C,0,-0.408439,-1.174719,-0.078831\C,0,-1.343
 203,0.000004,-0.000004\C,0,-0.40843,1.174721,0.078841\H,0,1.697516,1.2
 78691,0.615685\H,0,1.398694,1.037633,-1.096417\H,0,1.3987,-1.037644,1.
 096409\H,0,1.697501,-1.278699,-0.615696\H,0,-2.022861,0.053956,-0.8731
 23\H,0,-2.022885,-0.053944,0.873094\H,0,-0.742327,2.206653,0.11941\H,0
 ,-0.742342,-2.20665,-0.119391\\Version=EM64M-G16RevB.01\State=1-A\HF=-
 193.7534868\RMSD=7.785e-09\Dipole=-0.2513699,-0.00002,-0.0000116\Quadr
 upole=2.1394477,-0.8287306,-1.3107172,0.0000035,0.0000386,-0.1049763\P
 G=C01 [X(C5H8)]\\@


 TWO ROADS DIVERGED IN A WOOD, AND I--
 I TOOK THE ONE LESS TRAVELED BY,
 AND THAT HAS MADE ALL THE DIFFERENCE.

                       -- ROBERT FROST
 Job cpu time:       0 days  0 hours  0 minutes  5.7 seconds.
 Elapsed time:       0 days  0 hours  0 minutes  1.2 seconds.
 File lengths (MBytes):  RWF=      6 Int=      0 D2E=      0 Chk=      2 Scr=      1
 Normal termination of Gaussian 16 at Wed Jun  2 22:11:07 2021.
 Initial command:
 /Applications/g16/l1.exe "/Applications/g16/Scratch/Gau-20415.inp" -scrdir="/Applications/g16/Scratch/"
 Entering Link 1 = /Applications/g16/l1.exe PID=     20421.
  
 Copyright (c) 1988-2017, Gaussian, Inc.  All Rights Reserved.
  
 This is part of the Gaussian(R) 16 program.  It is based on
 the Gaussian(R) 09 system (copyright 2009, Gaussian, Inc.),
 the Gaussian(R) 03 system (copyright 2003, Gaussian, Inc.),
 the Gaussian(R) 98 system (copyright 1998, Gaussian, Inc.),
 the Gaussian(R) 94 system (copyright 1995, Gaussian, Inc.),
 the Gaussian 92(TM) system (copyright 1992, Gaussian, Inc.),
 the Gaussian 90(TM) system (copyright 1990, Gaussian, Inc.),
 the Gaussian 88(TM) system (copyright 1988, Gaussian, Inc.),
 the Gaussian 86(TM) system (copyright 1986, Carnegie Mellon
 University), and the Gaussian 82(TM) system (copyright 1983,
 Carnegie Mellon University). Gaussian is a federally registered
 trademark of Gaussian, Inc.
  
 This software contains proprietary and confidential information,
 including trade secrets, belonging to Gaussian, Inc.
  
 This software is provided under written license and may be
 used, copied, transmitted, or stored only in accord with that
 written license.
  
 The following legend is applicable only to US Government
 contracts under FAR:
  
                    RESTRICTED RIGHTS LEGEND
  
 Use, reproduction and disclosure by the US Government is
 subject to restrictions as set forth in subparagraphs (a)
 and (c) of the Commercial Computer Software - Restricted
 Rights clause in FAR 52.227-19.
  
 Gaussian, Inc.
 340 Quinnipiac St., Bldg. 40, Wallingford CT 06492
  
  
 ---------------------------------------------------------------
 Warning -- This program may not be used in any manner that
 competes with the business of Gaussian, Inc. or will provide
 assistance to any competitor of Gaussian, Inc.  The licensee
 of this program is prohibited from giving any competitor of
 Gaussian, Inc. access to this program.  By using this program,
 the user acknowledges that Gaussian, Inc. is engaged in the
 business of creating and licensing software in the field of
 computational chemistry and represents and warrants to the
 licensee that it is not a competitor of Gaussian, Inc. and that
 it will not use this program in any manner prohibited above.
 ---------------------------------------------------------------
  

 Cite this work as:
 Gaussian 16, Revision B.01,
 M. J. Frisch, G. W. Trucks, H. B. Schlegel, G. E. Scuseria, 
 M. A. Robb, J. R. Cheeseman, G. Scalmani, V. Barone, 
 G. A. Petersson, H. Nakatsuji, X. Li, M. Caricato, A. V. Marenich, 
 J. Bloino, B. G. Janesko, R. Gomperts, B. Mennucci, H. P. Hratchian, 
 J. V. Ortiz, A. F. Izmaylov, J. L. Sonnenberg, D. Williams-Young, 
 F. Ding, F. Lipparini, F. Egidi, J. Goings, B. Peng, A. Petrone, 
 T. Henderson, D. Ranasinghe, V. G. Zakrzewski, J. Gao, N. Rega, 
 G. Zheng, W. Liang, M. Hada, M. Ehara, K. Toyota, R. Fukuda, 
 J. Hasegawa, M. Ishida, T. Nakajima, Y. Honda, O. Kitao, H. Nakai, 
 T. Vreven, K. Throssell, J. A. Montgomery, Jr., J. E. Peralta, 
 F. Ogliaro, M. J. Bearpark, J. J. Heyd, E. N. Brothers, K. N. Kudin, 
 V. N. Staroverov, T. A. Keith, R. Kobayashi, J. Normand, 
 K. Raghavachari, A. P. Rendell, J. C. Burant, S. S. Iyengar, 
 J. Tomasi, M. Cossi, J. M. Millam, M. Klene, C. Adamo, R. Cammi, 
 J. W. Ochterski, R. L. Martin, K. Morokuma, O. Farkas, 
 J. B. Foresman, and D. J. Fox, Gaussian, Inc., Wallingford CT, 2016.
 
 ******************************************
 Gaussian 16:  EM64M-G16RevB.01 20-Dec-2017
                 2-Jun-2021 
 ******************************************
 %nprocshared=6
 Will use up to    6 processors via shared memory.
 %mem=8GB
 %oldchk=drch_1_1.chk
 %chk=drch_1_2.chk
 Copying data from "drch_1_1.chk" to current chk file "drch_1_2.chk"
 IOpt=  2 FromEx=T IUOpen= 4 IOptOp= 5 NList=   0 IFRang= 0 IUIn= 4 IUOut= 2.
 -------------------------------------------------------
 #p casscf(2,2)/6-31g(d) guess=read pop=no geom=allcheck
 -------------------------------------------------------
 1/29=7,38=1,172=1/1;
 2/12=2,40=1/2;
 3/5=1,6=6,7=1,14=-4,25=1,116=101/1,2,3;
 4/5=1,17=2,18=2,43=1/1,5;
 5/5=2,17=1000000,38=6/10;
 6/7=2,8=2,9=2,10=2,22=-1,28=1,31=1/1;
 99/5=1,9=1/99;
 Leave Link    1 at Wed Jun  2 22:11:07 2021, MaxMem=  1073741824 cpu:               0.2 elap:               0.1
 (Enter /Applications/g16/l101.exe)
 Structure from the checkpoint file:  "drch_1_2.chk"
 -------------------
 Title Card Required
 -------------------
 Charge =  0 Multiplicity = 1
 Z-Matrix found in chk file.
 C,0,1.024872,0.772022,-0.091024
 C,0,1.024868,-0.772027,0.091022
 C,0,-0.408439,-1.174719,-0.078831
 C,0,-1.343203,0.000004,-0.000004
 C,0,-0.40843,1.174721,0.078841
 H,0,1.697516,1.278691,0.615685
 H,0,1.398694,1.037633,-1.096417
 H,0,1.3987,-1.037644,1.096409
 H,0,1.697501,-1.278699,-0.615696
 H,0,-2.022861,0.053956,-0.873123
 H,0,-2.022885,-0.053944,0.873094
 H,0,-0.742327,2.206653,0.11941
 H,0,-0.742342,-2.20665,-0.119391
 Recover connectivity data from disk.
 ITRead=  0  0  0  0  0  0  0  0  0  0  0  0  0
 MicOpt= -1 -1 -1 -1 -1 -1 -1 -1 -1 -1 -1 -1 -1
 NAtoms=     13 NQM=       13 NQMF=       0 NMMI=      0 NMMIF=      0
                NMic=       0 NMicF=      0.
                    Isotopes and Nuclear Properties:
 (Nuclear quadrupole moments (NQMom) in fm**2, nuclear magnetic moments (NMagM)
  in nuclear magnetons)

  Atom         1           2           3           4           5           6           7           8           9          10
 IAtWgt=          12          12          12          12          12           1           1           1           1           1
 AtmWgt=  12.0000000  12.0000000  12.0000000  12.0000000  12.0000000   1.0078250   1.0078250   1.0078250   1.0078250   1.0078250
 NucSpn=           0           0           0           0           0           1           1           1           1           1
 AtZEff=   3.6000000   3.6000000   3.6000000   3.6000000   3.6000000   1.0000000   1.0000000   1.0000000   1.0000000   1.0000000
 NQMom=    0.0000000   0.0000000   0.0000000   0.0000000   0.0000000   0.0000000   0.0000000   0.0000000   0.0000000   0.0000000
 NMagM=    0.0000000   0.0000000   0.0000000   0.0000000   0.0000000   2.7928460   2.7928460   2.7928460   2.7928460   2.7928460
 AtZNuc=   6.0000000   6.0000000   6.0000000   6.0000000   6.0000000   1.0000000   1.0000000   1.0000000   1.0000000   1.0000000

  Atom        11          12          13
 IAtWgt=           1           1           1
 AtmWgt=   1.0078250   1.0078250   1.0078250
 NucSpn=           1           1           1
 AtZEff=   1.0000000   1.0000000   1.0000000
 NQMom=    0.0000000   0.0000000   0.0000000
 NMagM=    2.7928460   2.7928460   2.7928460
 AtZNuc=   1.0000000   1.0000000   1.0000000
 Leave Link  101 at Wed Jun  2 22:11:07 2021, MaxMem=  1073741824 cpu:               0.7 elap:               0.1
 (Enter /Applications/g16/l202.exe)
                          Input orientation:                          
 ---------------------------------------------------------------------
 Center     Atomic      Atomic             Coordinates (Angstroms)
 Number     Number       Type             X           Y           Z
 ---------------------------------------------------------------------
      1          6           0        1.024872    0.772022   -0.091024
      2          6           0        1.024868   -0.772027    0.091022
      3          6           0       -0.408439   -1.174719   -0.078831
      4          6           0       -1.343203    0.000004   -0.000004
      5          6           0       -0.408430    1.174721    0.078841
      6          1           0        1.697516    1.278691    0.615685
      7          1           0        1.398694    1.037633   -1.096417
      8          1           0        1.398700   -1.037644    1.096409
      9          1           0        1.697501   -1.278699   -0.615696
     10          1           0       -2.022861    0.053956   -0.873123
     11          1           0       -2.022885   -0.053944    0.873094
     12          1           0       -0.742327    2.206653    0.119410
     13          1           0       -0.742342   -2.206650   -0.119391
 ---------------------------------------------------------------------
                    Distance matrix (angstroms):
                    1          2          3          4          5
     1  C    0.000000
     2  C    1.554744   0.000000
     3  C    2.417505   1.498459   0.000000
     4  C    2.492404   2.492404   1.503320   0.000000
     5  C    1.498458   2.417503   2.354725   1.503322   0.000000
     6  H    1.099364   2.221074   3.307056   3.355605   2.175780
     7  H    1.105037   2.196503   3.032443   3.129983   2.160028
     8  H    2.196505   1.105037   2.160030   3.129995   3.032445
     9  H    2.221073   1.099364   2.175780   3.355598   3.307053
    10  H    3.227379   3.301587   2.178738   1.107783   2.183744
    11  H    3.301601   3.227395   2.183743   1.107781   2.178743
    12  H    2.285922   3.463570   3.403595   2.290112   1.085365
    13  H    3.463573   2.285924   1.085365   2.290111   3.403596
                    6          7          8          9         10
     6  H    0.000000
     7  H    1.754622   0.000000
     8  H    2.384490   3.019149   0.000000
     9  H    2.838405   2.384486   1.754620   0.000000
    10  H    4.190195   3.567144   4.096062   3.960219   0.000000
    11  H    3.960247   4.096061   3.567181   4.190202   1.749547
    12  H    2.657111   2.725585   4.007990   4.317502   2.694252
    13  H    4.317505   4.007990   2.725584   2.657112   2.705214
                   11         12         13
    11  H    0.000000
    12  H    2.705211   0.000000
    13  H    2.694246   4.419759   0.000000
 Stoichiometry    C5H8
 Framework group  C1[X(C5H8)]
 Deg. of freedom    33
 Full point group                 C1      NOp   1
 RotChk:  IX=0 Diff= 3.36D-15
 Largest Abelian subgroup         C1      NOp   1
 Largest concise Abelian subgroup C1      NOp   1
                         Standard orientation:                         
 ---------------------------------------------------------------------
 Center     Atomic      Atomic             Coordinates (Angstroms)
 Number     Number       Type             X           Y           Z
 ---------------------------------------------------------------------
      1          6           0        1.024873   -0.772021    0.091024
      2          6           0        1.024867    0.772028   -0.091022
      3          6           0       -0.408440    1.174719    0.078831
      4          6           0       -1.343203   -0.000005    0.000004
      5          6           0       -0.408429   -1.174721   -0.078841
      6          1           0        1.697517   -1.278689   -0.615685
      7          1           0        1.398695   -1.037631    1.096417
      8          1           0        1.398699    1.037646   -1.096409
      9          1           0        1.697500    1.278701    0.615696
     10          1           0       -2.022861   -0.053958    0.873123
     11          1           0       -2.022885    0.053942   -0.873094
     12          1           0       -0.742325   -2.206654   -0.119410
     13          1           0       -0.742344    2.206649    0.119391
 ---------------------------------------------------------------------
 Rotational constants (GHZ):           7.4527778           6.7324824           3.8090596
 Leave Link  202 at Wed Jun  2 22:11:07 2021, MaxMem=  1073741824 cpu:               0.0 elap:               0.0
 (Enter /Applications/g16/l301.exe)
 Standard basis: 6-31G(d) (6D, 7F)
 Ernie: Thresh=  0.10000D-02 Tol=  0.10000D-05 Strict=F.
 There are    91 symmetry adapted cartesian basis functions of A   symmetry.
 There are    91 symmetry adapted basis functions of A   symmetry.
    91 basis functions,   172 primitive gaussians,    91 cartesian basis functions
    19 alpha electrons       19 beta electrons
       nuclear repulsion energy       168.7600533234 Hartrees.
 IExCor=    0 DFT=F Ex=HF Corr=None ExCW=0 ScaHFX=  1.000000
 ScaDFX=  1.000000  1.000000  1.000000  1.000000 ScalE2=  1.000000  1.000000
 IRadAn=      5 IRanWt=     -1 IRanGd=            0 ICorTp=0 IEmpDi=  4
 NAtoms=   13 NActive=   13 NUniq=   13 SFac= 1.00D+00 NAtFMM=   60 NAOKFM=F Big=F
 Integral buffers will be    131072 words long.
 Regular integral format.
 Two-electron integral symmetry is turned off.
 Leave Link  301 at Wed Jun  2 22:11:07 2021, MaxMem=  1073741824 cpu:               0.1 elap:               0.0
 (Enter /Applications/g16/l302.exe)
 NPDir=0 NMtPBC=     1 NCelOv=     1 NCel=       1 NClECP=     1 NCelD=      1
         NCelK=      1 NCelE2=     1 NClLst=     1 CellRange=     0.0.
 One-electron integrals computed using PRISM.
 NBasis=    91 RedAO= T EigKep=  3.84D-03  NBF=    91
 NBsUse=    91 1.00D-06 EigRej= -1.00D+00 NBFU=    91
 Leave Link  302 at Wed Jun  2 22:11:07 2021, MaxMem=  1073741824 cpu:               0.5 elap:               0.1
 (Enter /Applications/g16/l303.exe)
 DipDrv:  MaxL=1.
 Leave Link  303 at Wed Jun  2 22:11:07 2021, MaxMem=  1073741824 cpu:               0.1 elap:               0.0
 (Enter /Applications/g16/l401.exe)
 Initial guess from the checkpoint file:  "drch_1_2.chk"
 B after Tr=    -0.000000   -0.000000   -0.000000
         Rot=    1.000000    0.000000    0.000000   -0.000000 Ang=   0.00 deg.
 Guess basis will be translated and rotated to current coordinates.
 JPrj=2 DoOrth=T DoCkMO=T.
 Leave Link  401 at Wed Jun  2 22:11:07 2021, MaxMem=  1073741824 cpu:               0.4 elap:               0.1
 (Enter /Applications/g16/l405.exe)
          Truncation Level=               99999
          a=  1          b=  0          c=  1
          a=N/2 - s   b=2s   c=n- (a+b)
          no. active orbitals (n)  2
          no. active ELECTRONS (N)=  2
                                                  IRREPS TO BE RETAINED = 1
                                                  GROUP IRREP. MULT. TABLE
                                                      1
                                                  IRREP. LABELS FOR ORBITALS
                                                   1 1
          BOTTOM WEIGHT=  2     TOP WEIGHT=  4
          Configuration         1 Symmetry 1 10
          Configuration         2 Symmetry 1 ab
          Configuration         3 Symmetry 1 01
          NO OF BASIS FUNCTIONS =         3 NO TO BE DELETED =    0
 CI Matrix Elements calculated here
          NO. OF CONFIGURATIONS IN REFERENCE SPACE =    1
                                   SECONDARY SPACE =    3
                                   TERTIARY SPACE =    3
          NO. OF ORBITALS =    2
          NO. OF ELECTRONS =    2
          NO. OF WEIGHTS =    3
          REFERENCE STATE CONFIGURATIONS ARE:     0
          NO. OF CORE ORBITALS =    0
          OPTION:  NON-DIAGONAL HOLE LINE INTERACTIONS INCLUDED
 Len28=          98 LenMCI=         101.
 Leave Link  405 at Wed Jun  2 22:11:11 2021, MaxMem=  1073741824 cpu:              12.9 elap:               3.4
 (Enter /Applications/g16/l510.exe)
 Enter MCSCF program.
 NBasis=   91 NCore=   18 NVal=    2 NVirt=   71 IFrame=0 Acc=  1.00D-08.
  Memory needed for Incore Integrals:                 9583938
  Integrals KEPT IN MEMORY
 IBUJAK length=                   33488
 Integral file not found: evaluate integrals 
 FoFCou: FMM=F IPFlag=           0 FMFlag=           0 FMFlg1=           0
         NFxFlg=           0 DoJE=F BraDBF=F KetDBF=F FulRan=T
         wScrn=  0.000000 ICntrl=       600 IOpCl=  0 I1Cent=           0 NGrid=           0
         NMat0=    1 NMatS0=      1 NMatT0=    0 NMatD0=    1 NMtDS0=    0 NMtDT0=    0
 Symmetry not used in FoFCou.
 Defining IBUGAM
 2ND ORD PT ENERGY     CV   -0.004282   CU   -0.001391   UV   -0.009459
 TOTAL                    -193.890994
 ITN=  1 MaxIt= 64 E=   -193.8758615858 DE=-1.94D+02 Acc= 1.00D-08 Lan=  0
 ITN=  2 MaxIt= 64 E=   -193.8943750292 DE=-1.85D-02 Acc= 1.00D-08 Lan=  0
 ITN=  3 MaxIt= 64 E=   -193.8989971915 DE=-4.62D-03 Acc= 1.00D-08 Lan=  0
 ITN=  4 MaxIt= 64 E=   -193.9000881473 DE=-1.09D-03 Acc= 1.00D-08 Lan=  0
 ITN=  5 MaxIt= 64 E=   -193.9003080832 DE=-2.20D-04 Acc= 1.00D-08 Lan=  0
 ITN=  6 MaxIt= 64 E=   -193.9003536203 DE=-4.55D-05 Acc= 1.00D-08 Lan=  0
 ITN=  7 MaxIt= 64 E=   -193.9003650182 DE=-1.14D-05 Acc= 1.00D-08 Lan=  0
 ITN=  8 MaxIt= 64 E=   -193.9003679637 DE=-2.95D-06 Acc= 1.00D-08 Lan=  0
 ITN=  9 MaxIt= 64 E=   -193.9003687064 DE=-7.43D-07 Acc= 1.00D-08 Lan=  0
 ITN= 10 MaxIt= 64 E=   -193.9003689123 DE=-2.06D-07 Acc= 1.00D-08 Lan=  0
 ITN= 11 MaxIt= 64 E=   -193.9003689764 DE=-6.42D-08 Acc= 1.00D-08 Lan=  0
 ITN= 12 MaxIt= 64 E=   -193.9003689984 DE=-2.20D-08 Acc= 1.00D-08 Lan=  0
 ITN= 13 MaxIt= 64 E=   -193.9003690066 DE=-8.15D-09 Acc= 1.00D-08 Lan=  0
 ... Do an extra-iteration for final printing.


                    EIGENVALUES AND  EIGENVECTORS OF CI MATRIX



   ( 1)     EIGENVALUE   -193.9003690    
 (    3) 0.7234370 (    1)-0.6903904 (    2) 0.0000000 (
 Final one electron symbolic density matrix:
                1             2 
      1  0.953278D+00
      2  0.239973D-12  0.104672D+01
 MCSCF converged.
 Leave Link  510 at Wed Jun  2 22:11:18 2021, MaxMem=  1073741824 cpu:              35.4 elap:               6.7
 (Enter /Applications/g16/l601.exe)
 Copying SCF densities to generalized density rwf, IOpCl= 0 IROHF=3.

 **********************************************************************

            Population analysis using the SCF Density.

 **********************************************************************

 Orbital symmetries:
       Occupied  (A) (A) (A) (A) (A) (A) (A) (A) (A) (A) (A) (A)
                 (A) (A) (A) (A) (A) (A) (A)
       Virtual   (A) (A) (A) (A) (A) (A) (A) (A) (A) (A) (A) (A)
                 (A) (A) (A) (A) (A) (A) (A) (A) (A) (A) (A) (A)
                 (A) (A) (A) (A) (A) (A) (A) (A) (A) (A) (A) (A)
                 (A) (A) (A) (A) (A) (A) (A) (A) (A) (A) (A) (A)
                 (A) (A) (A) (A) (A) (A) (A) (A) (A) (A) (A) (A)
                 (A) (A) (A) (A) (A) (A) (A) (A) (A) (A) (A) (A)
 The electronic state is 1-A.
     Natural Orbital Coefficients:
                           1         2         3         4         5
     Eigenvalues --     2.00000   2.00000   2.00000   2.00000   2.00000
   1 1   C  1S          0.07863  -0.04815   0.10685  -0.01796  -0.02269
   2        2S         -0.02620   0.02699   0.01054  -0.11064   0.00028
   3        2PX         0.05987  -0.18064  -0.06588  -0.06660  -0.10491
   4        2PY        -0.09991   0.04655   0.07509   0.01472  -0.04552
   5        2PZ        -0.04029  -0.16682   0.15211  -0.09364  -0.14446
   6        3S         -0.01641   0.02228   0.01884  -0.11555  -0.01583
   7        3PX         0.02659  -0.08587  -0.02907  -0.03058  -0.03789
   8        3PY        -0.04283   0.02257   0.03361   0.00229  -0.01751
   9        3PZ        -0.02323  -0.08145   0.08329  -0.04768  -0.07599
  10        4XX         0.00048   0.00991  -0.00293   0.00263   0.00977
  11        4YY        -0.00533   0.00184  -0.00218  -0.00002   0.00037
  12        4ZZ         0.00380  -0.01465   0.00114  -0.01012  -0.01050
  13        4XY        -0.00067   0.00256  -0.00176   0.00100   0.00222
  14        4XZ        -0.00448  -0.00492   0.01041  -0.00243  -0.00416
  15        4YZ         0.00377   0.00061  -0.00660   0.00108   0.00564
  16 2   C  1S          0.83525   0.04795   0.33381   0.33482  -0.10356
  17        2S         -0.02203  -0.02165  -0.04554   0.01284   0.00782
  18        2PX         0.01962  -0.06494  -0.09226  -0.04174  -0.13449
  19        2PY         0.07950  -0.10126  -0.07497   0.02206   0.02109
  20        2PZ        -0.03525  -0.17429   0.09470  -0.07865  -0.03431
  21        3S         -0.05460  -0.02484  -0.07332  -0.00099  -0.01069
  22        3PX         0.00645  -0.02564  -0.04136  -0.00810  -0.04662
  23        3PY         0.03373  -0.04362  -0.02884   0.00844   0.00444
  24        3PZ        -0.01567  -0.09275   0.04260  -0.03778  -0.01109
  25        4XX        -0.00099  -0.00603   0.00183   0.00261   0.00903
  26        4YY        -0.00638   0.00333   0.00260  -0.00661  -0.00244
  27        4ZZ         0.00238  -0.00052  -0.01186   0.00143  -0.00575
  28        4XY        -0.00327   0.00068   0.00031   0.00089  -0.00504
  29        4XZ        -0.00102  -0.01219   0.00273  -0.00407  -0.00391
  30        4YZ         0.00137  -0.00645  -0.00199  -0.00063   0.00168
  31 3   C  1S          0.26399   0.15994   0.34366  -0.66202   0.13296
  32        2S          0.04993  -0.03066  -0.02687   0.00449   0.18907
  33        2PX        -0.02889  -0.00320   0.04435   0.00599   0.03495
  34        2PY         0.08980  -0.03568  -0.11495  -0.08338   0.03357
  35        2PZ         0.00684   0.00744  -0.01722  -0.03539  -0.03903
  36        3S          0.05218  -0.03467  -0.03801   0.01942   0.19268
  37        3PX        -0.00452  -0.00034   0.02184   0.01158   0.00814
  38        3PY         0.03933  -0.01655  -0.04890  -0.04165   0.00694
  39        3PZ         0.00104  -0.00056  -0.00360  -0.00413  -0.00480
  40        4XX        -0.00157  -0.00367  -0.00172   0.00334   0.00230
  41        4YY         0.00309  -0.00051  -0.00461   0.00009   0.00819
  42        4ZZ        -0.00149   0.00018   0.00016   0.00053  -0.00689
  43        4XY        -0.00017  -0.00192   0.00106   0.00486  -0.00768
  44        4XZ        -0.00151  -0.00744   0.00459   0.00029   0.00072
  45        4YZ        -0.00092  -0.00267   0.00226   0.00332   0.00483
  46 4   C  1S          0.07951   0.05033  -0.01170  -0.05306  -0.06470
  47        2S          0.02217  -0.05959  -0.02802   0.08909  -0.09153
  48        2PX        -0.07685   0.03307   0.10011   0.03583   0.09974
  49        2PY         0.01117   0.01600   0.00158   0.01629   0.07069
  50        2PZ         0.05718   0.23077  -0.16181  -0.13153  -0.19314
  51        3S          0.02829  -0.07322  -0.03187   0.08031  -0.13200
  52        3PX        -0.02986   0.00152   0.03931   0.00666   0.03450
  53        3PY         0.00249   0.00580  -0.00182   0.00675   0.03269
  54        3PZ         0.03257   0.13103  -0.09211  -0.07380  -0.10876
  55        4XX        -0.00201   0.00277   0.00287   0.00440  -0.00067
  56        4YY        -0.00060  -0.00388  -0.00147  -0.00021   0.00840
  57        4ZZ         0.00526  -0.00382  -0.00665   0.00002  -0.01062
  58        4XY         0.00185   0.00090  -0.00099   0.00034   0.00364
  59        4XZ        -0.00469  -0.01899   0.01358   0.00967   0.01495
  60        4YZ        -0.00044  -0.00017   0.00023   0.00000   0.00136
  61 5   C  1S         -0.04548  -0.00611   0.00350   0.23187  -0.20410
  62        2S          0.00152  -0.01119  -0.08504   0.00865   0.12947
  63        2PX        -0.02113   0.17583   0.03882  -0.00539   0.07900
  64        2PY        -0.09068   0.12480   0.17189   0.07792  -0.08878
  65        2PZ        -0.00391   0.02646   0.00845  -0.02605  -0.04306
  66        3S          0.00975  -0.01135  -0.08453  -0.00327   0.13822
  67        3PX        -0.00629   0.07342   0.01754   0.01236   0.02340
  68        3PY        -0.03845   0.06143   0.08390   0.02885  -0.04312
  69        3PZ        -0.00249   0.00670   0.00444   0.00141   0.00013
  70        4XX        -0.00040   0.00766   0.00011  -0.00158   0.00135
  71        4YY         0.00174  -0.01161  -0.00939   0.00052   0.01023
  72        4ZZ         0.00042   0.00023   0.00285  -0.00152  -0.00615
  73        4XY        -0.00001   0.00415  -0.00475  -0.00529   0.01079
  74        4XZ        -0.00212  -0.00523   0.00601  -0.00046   0.00178
  75        4YZ         0.00022   0.00298  -0.00170  -0.00242  -0.00330
  76 6   H  1S          0.05725  -0.00448  -0.10353  -0.02955   0.03441
  77        2S          0.04796  -0.00901  -0.07904  -0.00038   0.03094
  78 7   H  1S         -0.00702  -0.13036   0.07092  -0.10797  -0.10127
  79        2S          0.00019  -0.10509   0.05358  -0.06312  -0.08387
  80 8   H  1S          0.01830   0.06654  -0.10110   0.04136  -0.00760
  81        2S          0.02405   0.05331  -0.06253   0.03013  -0.01324
  82 9   H  1S         -0.00305  -0.13024  -0.03666  -0.03512  -0.05037
  83        2S          0.00560  -0.09244  -0.01526  -0.02483  -0.03598
  84 10  H  1S          0.06473   0.09504  -0.13149  -0.04901  -0.17406
  85        2S          0.04783   0.09743  -0.10093  -0.05818  -0.12375
  86 11  H  1S          0.00337  -0.15282   0.04384   0.09011   0.03417
  87        2S         -0.00448  -0.11179   0.04795   0.05950   0.05275
  88 12  H  1S          0.05220  -0.10927  -0.13769  -0.04151   0.09814
  89        2S          0.03120  -0.07563  -0.08055  -0.02869   0.05614
  90 13  H  1S          0.06899  -0.02688  -0.08433  -0.04153   0.08786
  91        2S          0.03736  -0.00429  -0.04949  -0.03073   0.03933
                           6         7         8         9        10
     Eigenvalues --     2.00000   2.00000   2.00000   2.00000   2.00000
   1 1   C  1S          0.13409  -0.01015   0.16182   0.00865  -0.02293
   2        2S         -0.12376  -0.01215  -0.01494  -0.18087   0.00748
   3        2PX         0.00683   0.14602  -0.01639   0.12057   0.22264
   4        2PY         0.08118  -0.05925   0.13296   0.09761   0.00406
   5        2PZ         0.11338   0.06994  -0.17458  -0.00361  -0.22729
   6        3S         -0.11698  -0.02640  -0.04036  -0.18629   0.03803
   7        3PX         0.00703   0.07688  -0.00823   0.06622   0.11258
   8        3PY         0.04375  -0.03918   0.05132   0.04152  -0.00036
   9        3PZ         0.06000   0.05024  -0.10898   0.00086  -0.14473
  10        4XX        -0.00966  -0.00253  -0.00217  -0.00951  -0.00321
  11        4YY         0.00214  -0.00577   0.01521   0.00433   0.00329
  12        4ZZ        -0.00111   0.01151  -0.01472  -0.00286  -0.00033
  13        4XY        -0.00147  -0.00632  -0.00104  -0.00575  -0.01368
  14        4XZ         0.00574  -0.00036  -0.00771  -0.00211  -0.01745
  15        4YZ        -0.00459  -0.00500   0.00765  -0.00252   0.01539
  16 2   C  1S          0.01477   0.02958  -0.09242  -0.15330   0.03116
  17        2S         -0.01868   0.02654   0.14134   0.02840  -0.08173
  18        2PX        -0.21493   0.08103  -0.01912  -0.06050   0.05473
  19        2PY        -0.01351   0.06023  -0.06010  -0.00233  -0.05860
  20        2PZ         0.07997  -0.17448   0.13206  -0.05601   0.13726
  21        3S         -0.01832   0.01306   0.15310   0.04515  -0.09590
  22        3PX        -0.10276   0.04390  -0.00387  -0.02740   0.02442
  23        3PY        -0.03292   0.03349  -0.03025  -0.02199  -0.02880
  24        3PZ         0.03422  -0.10318   0.08808  -0.03127   0.09884
  25        4XX         0.01099  -0.00041   0.00428   0.00504  -0.00115
  26        4YY        -0.00272  -0.00910   0.00675  -0.00621   0.00773
  27        4ZZ        -0.01325   0.01349  -0.00552   0.00056  -0.01026
  28        4XY        -0.01236   0.00141   0.00359  -0.00580  -0.00349
  29        4XZ        -0.00236  -0.00677   0.00643  -0.00460   0.00803
  30        4YZ        -0.00118  -0.00752   0.00889  -0.00254   0.01089
  31 3   C  1S         -0.21153   0.01139   0.18230   0.18539  -0.02365
  32        2S          0.16666   0.06250   0.00989   0.09168   0.00212
  33        2PX         0.12074  -0.10459   0.06543   0.03418  -0.05992
  34        2PY         0.07751  -0.12368  -0.07988  -0.03108   0.06598
  35        2PZ         0.01976  -0.02716   0.01236  -0.01310   0.03221
  36        3S          0.17237   0.04236  -0.03877   0.06952   0.03079
  37        3PX         0.05235  -0.04870   0.03558   0.01289  -0.02406
  38        3PY         0.04466  -0.04783  -0.03350  -0.00271   0.03299
  39        3PZ        -0.00435  -0.00568   0.00180  -0.00368   0.00742
  40        4XX         0.00528  -0.00258   0.01065   0.00013  -0.00873
  41        4YY         0.00733   0.00677  -0.00630   0.00594   0.00903
  42        4ZZ        -0.00592  -0.00144  -0.00251  -0.00376  -0.00062
  43        4XY        -0.01232   0.01221   0.00178  -0.00084  -0.00266
  44        4XZ        -0.00315  -0.00334   0.00221  -0.00249   0.00415
  45        4YZ        -0.00236   0.00114   0.00040   0.00097   0.00024
  46 4   C  1S         -0.38615  -0.56219  -0.35393   0.53652  -0.07505
  47        2S         -0.05260   0.09449   0.15089   0.11001  -0.07228
  48        2PX        -0.03261   0.23867  -0.14536   0.12305   0.11484
  49        2PY        -0.02803   0.00291   0.01229  -0.10157  -0.04692
  50        2PZ         0.14892   0.03510  -0.01059   0.01531  -0.01190
  51        3S         -0.05309   0.10822   0.17169   0.07147  -0.05023
  52        3PX        -0.02223   0.12542  -0.08442   0.06196   0.07484
  53        3PY        -0.02977  -0.00160   0.00567  -0.05700  -0.03692
  54        3PZ         0.08490   0.02059  -0.00599   0.01127  -0.00426
  55        4XX         0.00009   0.00088   0.00735  -0.00073  -0.00582
  56        4YY         0.00123   0.01545  -0.00995   0.00815   0.00700
  57        4ZZ         0.00050  -0.01138   0.01371  -0.00697  -0.00869
  58        4XY         0.00460   0.00172   0.00186  -0.00291  -0.00105
  59        4XZ        -0.01141  -0.00323   0.00069  -0.00281  -0.00011
  60        4YZ        -0.00020   0.00149  -0.00082   0.00115   0.00258
  61 5   C  1S          0.15707  -0.23778  -0.29565  -0.05392   0.25397
  62        2S         -0.05967   0.00922  -0.04832  -0.02007  -0.12507
  63        2PX        -0.08893  -0.14898  -0.00778  -0.25566  -0.11438
  64        2PY        -0.06475   0.09901   0.01940   0.06165   0.09193
  65        2PZ         0.02298   0.01493  -0.03195  -0.01157  -0.04795
  66        3S         -0.04258  -0.00022  -0.05684  -0.00721  -0.11614
  67        3PX        -0.03237  -0.06884   0.01736  -0.10167  -0.06134
  68        3PY        -0.02502   0.03497  -0.00088   0.02207   0.05710
  69        3PZ        -0.00334   0.00223  -0.00532  -0.00400  -0.00966
  70        4XX        -0.00918  -0.00541   0.00211  -0.01283  -0.00475
  71        4YY         0.00322   0.00870   0.00069   0.01160  -0.00573
  72        4ZZ         0.00224   0.00023  -0.00006   0.00015   0.00303
  73        4XY         0.00177  -0.01326  -0.00164  -0.01229  -0.00950
  74        4XZ        -0.00151  -0.00110  -0.00434  -0.00446  -0.00735
  75        4YZ         0.00261   0.00130  -0.00060   0.00057  -0.00132
  76 6   H  1S         -0.10981   0.03952   0.02778  -0.04000   0.19754
  77        2S         -0.06077   0.03412   0.03061   0.00705   0.16230
  78 7   H  1S          0.01182   0.08759  -0.14345  -0.05023  -0.09330
  79        2S          0.03192   0.08484  -0.12006  -0.00178  -0.08865
  80 8   H  1S         -0.10063   0.14620  -0.05010   0.03107  -0.12428
  81        2S         -0.07584   0.12170  -0.08018   0.01780  -0.09559
  82 9   H  1S         -0.07108  -0.01718   0.09042  -0.04104   0.03644
  83        2S         -0.05839  -0.01876   0.04801  -0.04356   0.04797
  84 10  H  1S          0.07811  -0.03818   0.11127  -0.00442  -0.07723
  85        2S          0.07616  -0.05329   0.05755  -0.01965  -0.05384
  86 11  H  1S         -0.08248  -0.07728   0.12238  -0.03055  -0.07012
  87        2S         -0.06141  -0.08690   0.06628  -0.04328  -0.04771
  88 12  H  1S          0.03298  -0.02101  -0.02178   0.00996  -0.08557
  89        2S          0.03920  -0.01779  -0.00343   0.01381  -0.04151
  90 13  H  1S          0.09528  -0.02685  -0.05849   0.01716   0.05985
  91        2S          0.04380  -0.02953  -0.03760   0.00661   0.04864
                          11        12        13        14        15
     Eigenvalues --     2.00000   2.00000   2.00000   2.00000   2.00000
   1 1   C  1S          0.17532  -0.17349   0.30568   0.14942  -0.63554
   2        2S         -0.14099   0.06429  -0.07223  -0.10233  -0.01688
   3        2PX        -0.02269  -0.00889  -0.14691  -0.05380  -0.07420
   4        2PY        -0.02264  -0.03131  -0.02880  -0.01255   0.22713
   5        2PZ         0.02702  -0.00424   0.00917  -0.02451   0.02591
   6        3S         -0.14522   0.03497  -0.08563  -0.11577   0.00409
   7        3PX        -0.04134   0.00887  -0.06888  -0.02161  -0.04666
   8        3PY        -0.02236  -0.03233  -0.00191   0.01142   0.12334
   9        3PZ         0.01609  -0.01677  -0.00328  -0.02129   0.01366
  10        4XX        -0.00711   0.00375   0.00985   0.00345  -0.00333
  11        4YY         0.00091   0.00385  -0.00958  -0.00377   0.01416
  12        4ZZ        -0.00236  -0.00099  -0.00826  -0.00746  -0.00936
  13        4XY         0.00692  -0.00203   0.01023   0.00818   0.00980
  14        4XZ         0.00193  -0.00121   0.00358   0.00006   0.00532
  15        4YZ        -0.00243   0.00595   0.00123   0.00306  -0.00594
  16 2   C  1S         -0.13720   0.11514   0.05110   0.00278   0.11509
  17        2S          0.08119   0.11602  -0.11423  -0.16286   0.09552
  18        2PX         0.13043  -0.04636   0.16710   0.10596   0.16811
  19        2PY         0.13175   0.05588   0.06268  -0.02472  -0.15017
  20        2PZ        -0.04055   0.20343   0.08949   0.06753   0.04443
  21        3S          0.11084   0.08498  -0.11036  -0.13802   0.10344
  22        3PX         0.07527  -0.00229   0.09335   0.06046   0.08392
  23        3PY         0.05671   0.04085   0.02961  -0.01332  -0.08270
  24        3PZ        -0.02308   0.11492   0.05279   0.04328   0.02179
  25        4XX         0.00257   0.01465  -0.00550  -0.00368  -0.01128
  26        4YY        -0.01134  -0.00101  -0.00108  -0.00368   0.01279
  27        4ZZ         0.01551  -0.00757   0.00194  -0.00287   0.00307
  28        4XY         0.00849   0.00522   0.00889   0.00803   0.00831
  29        4XZ         0.00236   0.00959   0.00876   0.00576   0.00493
  30        4YZ         0.00198   0.00970   0.00690   0.00391  -0.00029
  31 3   C  1S          0.06377  -0.26541  -0.20586   0.23657   0.11868
  32        2S          0.07157   0.12740  -0.02901  -0.04323  -0.04253
  33        2PX        -0.10430   0.03731  -0.14869  -0.20512  -0.11228
  34        2PY        -0.03170  -0.20871   0.15642  -0.18058   0.11595
  35        2PZ        -0.01033   0.02686   0.03983   0.02055   0.02551
  36        3S          0.06425   0.12226  -0.01642  -0.03783  -0.06209
  37        3PX        -0.06097   0.00494  -0.06653  -0.07570  -0.07100
  38        3PY        -0.03064  -0.10738   0.07989  -0.09146   0.06597
  39        3PZ        -0.00092  -0.00586   0.00997   0.00219   0.01031
  40        4XX         0.00513   0.01155  -0.01289  -0.00639  -0.00770
  41        4YY        -0.00230  -0.00310   0.01651  -0.00039   0.00999
  42        4ZZ        -0.00131  -0.00581  -0.00036   0.00089  -0.00024
  43        4XY         0.00678   0.00708  -0.00031   0.01902  -0.00692
  44        4XZ         0.00040   0.00126   0.00386   0.00453   0.00268
  45        4YZ         0.00059  -0.00169  -0.00112  -0.00066  -0.00027
  46 4   C  1S          0.06781   0.24350   0.06013  -0.15471  -0.12250
  47        2S         -0.08688  -0.00742   0.00953   0.10201  -0.04690
  48        2PX        -0.03032   0.16798   0.09054   0.09970   0.01847
  49        2PY         0.25359   0.13373  -0.07840   0.14278  -0.03682
  50        2PZ        -0.01742   0.13880   0.02515   0.04795  -0.01445
  51        3S         -0.06298  -0.04670  -0.00461   0.10176  -0.04733
  52        3PX        -0.00117   0.06819   0.04644   0.05276   0.01696
  53        3PY         0.11024   0.06434  -0.03367   0.08643  -0.01107
  54        3PZ        -0.01360   0.07545   0.01340   0.02350  -0.00951
  55        4XX        -0.00380   0.00184  -0.00166   0.00023  -0.00367
  56        4YY        -0.00276   0.00644   0.00741   0.00788   0.00523
  57        4ZZ         0.00091  -0.01225  -0.00610  -0.00407  -0.00314
  58        4XY         0.01867   0.01237  -0.01046   0.00734  -0.00599
  59        4XZ         0.00397  -0.00868  -0.00192  -0.00185   0.00131
  60        4YZ        -0.00040   0.00182   0.00129   0.00132   0.00088
  61 5   C  1S          0.18551  -0.12854  -0.54267   0.29235   0.04359
  62        2S         -0.22563   0.03082   0.08739   0.11939   0.05550
  63        2PX         0.11949   0.06156   0.03480  -0.01852  -0.02908
  64        2PY        -0.08621  -0.03696   0.14029  -0.11235   0.00203
  65        2PZ        -0.00706   0.01643   0.02174  -0.00296   0.00096
  66        3S         -0.18508   0.02590   0.13610   0.10356   0.06191
  67        3PX         0.06401   0.01958   0.02732   0.00407  -0.01751
  68        3PY        -0.03770  -0.01943   0.07807  -0.07194  -0.00800
  69        3PZ        -0.00253  -0.00061   0.00846  -0.00175  -0.00030
  70        4XX        -0.00888  -0.00141   0.00506  -0.00773  -0.00223
  71        4YY        -0.01128   0.00688  -0.00280   0.01736   0.00530
  72        4ZZ         0.00931  -0.00249  -0.00112  -0.00538  -0.00168
  73        4XY         0.00459   0.00561  -0.00581   0.00458   0.00609
  74        4XZ         0.00134  -0.00097   0.00047  -0.00111   0.00079
  75        4YZ        -0.00222   0.00331   0.00158   0.00170   0.00048
  76 6   H  1S         -0.07568   0.04211  -0.08137  -0.04822  -0.11337
  77        2S         -0.03995   0.02854  -0.04903  -0.01999  -0.09580
  78 7   H  1S         -0.03834   0.01510  -0.05509  -0.06903  -0.03873
  79        2S          0.00063  -0.00816  -0.03222  -0.03810  -0.03429
  80 8   H  1S          0.10609  -0.08297  -0.04894  -0.07683   0.02064
  81        2S          0.06998  -0.09078  -0.01878  -0.03384  -0.00260
  82 9   H  1S          0.10742   0.13501   0.08538   0.01459   0.07310
  83        2S          0.07131   0.09708   0.09364   0.04855   0.03968
  84 10  H  1S         -0.03843   0.00082  -0.02051   0.01494  -0.03438
  85        2S         -0.01617   0.00976  -0.01945  -0.00904  -0.02202
  86 11  H  1S         -0.00240  -0.13589  -0.04908  -0.02409  -0.01901
  87        2S          0.01415  -0.10731  -0.04143  -0.04203  -0.00823
  88 12  H  1S         -0.06110   0.03416  -0.05530   0.12581   0.03455
  89        2S         -0.01274   0.03263  -0.06497   0.08581   0.02105
  90 13  H  1S          0.01345  -0.08114   0.11978  -0.09128   0.08481
  91        2S         -0.01306  -0.08318   0.09938  -0.06160   0.08215
                          16        17        18        19        20
     Eigenvalues --     2.00000   2.00000   2.00000   1.04672   0.95328
   1 1   C  1S         -0.03484   0.50175  -0.36062   0.00101  -0.00576
   2        2S          0.03784   0.14593   0.08364  -0.00450   0.01390
   3        2PX        -0.11212   0.01832   0.02325  -0.00689  -0.00459
   4        2PY        -0.13797   0.22203  -0.01472  -0.01513   0.01642
   5        2PZ         0.00948   0.01774   0.03997  -0.03371  -0.03638
   6        3S          0.02307   0.11875   0.13217   0.01531   0.02663
   7        3PX        -0.04657   0.00421   0.00520  -0.02831   0.01294
   8        3PY        -0.08236   0.11767   0.00465  -0.00650   0.00482
   9        3PZ         0.00113   0.01653   0.02336  -0.03162  -0.05760
  10        4XX         0.01329  -0.00750  -0.00084   0.00409   0.00420
  11        4YY        -0.01092   0.01426  -0.00301   0.00204   0.00452
  12        4ZZ         0.00030  -0.00338   0.00744  -0.00671  -0.00831
  13        4XY         0.00094   0.00158  -0.00267  -0.00049   0.00062
  14        4XZ         0.00145   0.00254   0.00133  -0.02133  -0.01875
  15        4YZ         0.00266  -0.00657  -0.00117  -0.00066   0.00032
  16 2   C  1S         -0.10752   0.02390  -0.02757  -0.00101  -0.00576
  17        2S          0.03958   0.10400  -0.13795   0.00450   0.01390
  18        2PX         0.02487   0.07105  -0.02826   0.00689  -0.00459
  19        2PY         0.17937  -0.23498  -0.10519  -0.01513  -0.01642
  20        2PZ         0.05275  -0.03990  -0.00919  -0.03371   0.03638
  21        3S          0.01507   0.09105  -0.16681  -0.01531   0.02663
  22        3PX         0.02673   0.03785  -0.00694   0.02831   0.01294
  23        3PY         0.10231  -0.12260  -0.04958  -0.00650  -0.00482
  24        3PZ         0.02941  -0.02776  -0.00851  -0.03162   0.05761
  25        4XX         0.00731  -0.00936  -0.00213  -0.00409   0.00420
  26        4YY        -0.00534   0.01651   0.00617  -0.00204   0.00452
  27        4ZZ         0.00451  -0.00112  -0.00839   0.00671  -0.00831
  28        4XY         0.00466   0.00095  -0.00490  -0.00049  -0.00062
  29        4XZ         0.00479  -0.00260  -0.00235  -0.02133   0.01875
  30        4YZ         0.00639  -0.00677  -0.00418   0.00066   0.00032
  31 3   C  1S          0.16625  -0.12098  -0.13478  -0.01009   0.00770
  32        2S          0.09667   0.07466   0.15198   0.01627  -0.01597
  33        2PX         0.03153  -0.13401  -0.19005   0.02375  -0.02289
  34        2PY         0.09079   0.05078  -0.00103  -0.02722   0.02533
  35        2PZ         0.00840   0.00438  -0.00092   0.41343  -0.43097
  36        3S          0.05166   0.05550   0.14680   0.07437  -0.03443
  37        3PX         0.01708  -0.07593  -0.06268   0.03395  -0.01865
  38        3PY         0.05390   0.04192   0.01403  -0.03727   0.01163
  39        3PZ         0.00036   0.00443  -0.00064   0.38788  -0.40687
  40        4XX         0.00186  -0.00451  -0.00347  -0.00194   0.00217
  41        4YY         0.01006   0.01532   0.01596  -0.00160   0.00298
  42        4ZZ        -0.00530  -0.00386  -0.00534   0.00154  -0.00330
  43        4XY        -0.00098  -0.00578   0.00613  -0.00090  -0.00052
  44        4XZ         0.00001   0.00030   0.00223   0.00194   0.00092
  45        4YZ         0.00015   0.00099   0.00134  -0.00120   0.00038
  46 4   C  1S         -0.08742   0.11585   0.03861  -0.00000  -0.00339
  47        2S          0.12350   0.01684   0.15356   0.00000   0.00896
  48        2PX         0.02950   0.04924  -0.05232   0.00000   0.00935
  49        2PY        -0.10455   0.05076   0.19200  -0.01184  -0.00000
  50        2PZ         0.00916  -0.00326  -0.01176  -0.06213   0.00000
  51        3S          0.11381  -0.00879   0.14503   0.00000   0.00559
  52        3PX        -0.00011   0.02560  -0.03046   0.00000  -0.00624
  53        3PY        -0.05698   0.02043   0.07615  -0.00849  -0.00000
  54        3PZ         0.00602  -0.00238  -0.00842  -0.08449   0.00000
  55        4XX         0.00617  -0.00199   0.00353   0.00000  -0.00086
  56        4YY        -0.00061   0.00722  -0.00101   0.00000   0.00403
  57        4ZZ         0.00126  -0.00469   0.00673  -0.00000  -0.00354
  58        4XY        -0.00905   0.00301   0.01422  -0.00169  -0.00000
  59        4XZ        -0.00134   0.00077   0.00302   0.03307   0.00000
  60        4YZ        -0.00030   0.00090  -0.00065   0.00000  -0.02447
  61 5   C  1S          0.45089   0.21675  -0.11435   0.01009   0.00770
  62        2S          0.09728   0.02939  -0.10304  -0.01627  -0.01598
  63        2PX         0.07921  -0.02566   0.08721  -0.02375  -0.02289
  64        2PY         0.23238  -0.01444   0.01755  -0.02722  -0.02534
  65        2PZ         0.02989  -0.00217   0.00425   0.41343   0.43097
  66        3S          0.06637   0.00242  -0.12692  -0.07437  -0.03443
  67        3PX         0.04788  -0.02785   0.03874  -0.03395  -0.01865
  68        3PY         0.12111  -0.02325   0.00134  -0.03728  -0.01163
  69        3PZ         0.01134  -0.00241  -0.00071   0.38788   0.40686
  70        4XX         0.01281  -0.00227   0.00357   0.00194   0.00217
  71        4YY        -0.01247   0.00656  -0.00608   0.00161   0.00298
  72        4ZZ        -0.00342  -0.00251   0.00307  -0.00154  -0.00330
  73        4XY        -0.01319   0.00718  -0.00050  -0.00090   0.00052
  74        4XZ         0.00133   0.00056   0.00193   0.00194  -0.00092
  75        4YZ         0.00133   0.00042  -0.00048   0.00120   0.00038
  76 6   H  1S          0.01381  -0.02482   0.02765   0.04614   0.04348
  77        2S          0.00959  -0.04765  -0.00272   0.08760   0.05525
  78 7   H  1S          0.01589   0.02858   0.06608  -0.05862  -0.06202
  79        2S          0.00502   0.00054   0.03158  -0.09597  -0.11187
  80 8   H  1S          0.01568   0.04109  -0.06379   0.05862  -0.06202
  81        2S          0.00559   0.01515  -0.02045   0.09597  -0.11187
  82 9   H  1S          0.10446  -0.02446  -0.09599  -0.04614   0.04348
  83        2S          0.07997  -0.03980  -0.04857  -0.08760   0.05525
  84 10  H  1S          0.04413  -0.02190   0.06039  -0.09816  -0.00257
  85        2S          0.01357  -0.02124   0.01820  -0.16655  -0.01286
  86 11  H  1S          0.02876  -0.01482   0.08641   0.09816  -0.00257
  87        2S          0.00195  -0.01463   0.04105   0.16654  -0.01286
  88 12  H  1S         -0.13363   0.03684  -0.06277   0.00616   0.00888
  89        2S         -0.12144   0.03557  -0.02431   0.00710   0.02320
  90 13  H  1S          0.08550   0.10041   0.09681  -0.00615   0.00887
  91        2S          0.05339   0.07370   0.04511  -0.00710   0.02320
                          21        22        23        24        25
     Eigenvalues --     0.00000   0.00000   0.00000   0.00000   0.00000
   1 1   C  1S          0.10177   0.02064  -0.07068   0.03856  -0.19887
   2        2S         -0.10609   0.00316   0.43533  -0.69329  -0.32344
   3        2PX         0.14119  -0.04984  -0.05543   0.17922  -0.08956
   4        2PY        -0.11176   0.02250  -0.02003  -0.24654  -0.08112
   5        2PZ        -0.41167  -0.00522  -0.14513   0.00268  -0.02460
   6        3S         -1.33005  -0.65236   0.48952   0.06032   5.03991
   7        3PX        -1.22627  -0.38478  -0.26321  -0.62509  -0.07909
   8        3PY         0.16001   0.13955   0.27971   0.20291   2.38420
   9        3PZ         1.58531  -0.05943   1.13686   0.52406   0.41905
  10        4XX         0.36916   0.42248  -0.22696   0.24787  -0.38053
  11        4YY         0.29505   0.07967  -0.15795  -0.03530  -0.26413
  12        4ZZ         0.23596  -0.29062  -0.15487   0.45411  -0.47083
  13        4XY        -0.01562   0.22888  -0.04019   0.08139  -0.05781
  14        4XZ         0.12570   0.11707   0.00823   0.25485   0.06224
  15        4YZ         0.01894  -0.02233  -0.01207  -0.18758  -0.04489
  16 2   C  1S         -0.13803  -0.02350  -0.00495   0.00066   0.17472
  17        2S          0.05396   0.13503   0.11739   0.06264  -0.11856
  18        2PX         0.16109   0.02760  -0.02834  -0.18350   0.06701
  19        2PY         0.19801  -0.01729   0.02698  -0.00269  -0.02905
  20        2PZ         0.21749  -0.02810   0.19154   0.05345   0.19748
  21        3S          2.67051  -0.16731  -0.26583  -0.06143  -3.87191
  22        3PX        -1.16523   0.04176   0.42901  -0.17320  -0.56624
  23        3PY        -0.98401  -0.02182  -0.30069  -0.26091   1.93300
  24        3PZ        -1.53019   0.04836  -1.41770   0.18065  -1.10460
  25        4XX        -0.11486   0.20604  -0.39375   0.11317   0.67209
  26        4YY        -0.30898  -0.26768   0.02930   0.33555   0.23144
  27        4ZZ        -0.42862  -0.21631   0.01425  -0.44032   0.47942
  28        4XY         0.00973  -0.19675   0.10714  -0.09974  -0.02909
  29        4XZ        -0.15037  -0.08397   0.05389   0.11087  -0.06124
[...]
  32        2S         -1.27754   0.85087  -0.04256   0.70587  -0.13677
  33        2PX         0.08104  -0.04513   0.05834   0.06834   0.18952
  34        2PY        -0.02338   0.06101  -0.04649   0.02499   0.39085
  35        2PZ         0.10720   0.11087  -0.17523  -0.05933  -0.09031
  36        3S         -0.66220   0.02053  -1.58182   0.47339  -2.39450
  37        3PX        -0.37532  -1.10266  -0.20913  -0.99101  -1.21343
  38        3PY         1.30598  -0.33227   0.23662   0.08022  -1.82149
  39        3PZ        -0.25024  -0.22407   0.24865   0.03328   0.31143
  40        4XX         0.33672  -0.48246   0.32385  -0.52119   0.32017
  41        4YY         0.49999  -0.13200   0.09684  -0.31915   0.51419
  42        4ZZ         0.44562  -0.59926   0.43898   0.09522   0.42992
  43        4XY         0.12934   0.02628   0.14114   0.12441   0.10253
  44        4XZ        -0.00957  -0.05181   0.03409   0.00224  -0.01866
  45        4YZ         0.18646  -0.00530  -0.07701  -0.02736  -0.13614
  46 4   C  1S         -0.01009   0.08118   0.20423  -0.05203  -0.09220
  47        2S         -0.75110   0.27541  -0.92315   1.50855   0.25651
  48        2PX         0.27946   0.11721  -0.33010   0.04292  -0.07360
  49        2PY        -0.05125  -0.10752  -0.14956   0.09656   0.05045
  50        2PZ        -0.08202  -0.12703   0.06210   0.03780  -0.02752
  51        3S          2.49297  -1.78516  -1.00207  -2.61561   0.81069
  52        3PX         0.27389   0.21888   1.14224  -0.74729   0.09001
  53        3PY        -0.28673  -0.90708   0.57830  -0.01929  -1.13963
  54        3PZ         0.61726   0.05607  -0.09831  -0.07284  -0.77406
  55        4XX         0.15978   0.24952   0.78882  -0.62895  -0.27305
  56        4YY         0.19779   0.48541   0.48446  -0.64182  -0.20920
  57        4ZZ         0.26989   0.16517   0.44974  -0.35333  -0.18334
  58        4XY        -0.08470  -0.12253  -0.01243  -0.04356  -0.10329
  59        4XZ        -0.12985   0.08177  -0.06044  -0.02508  -0.05068
  60        4YZ         0.18249   0.05827  -0.02602   0.04668   0.00602
  61 5   C  1S          0.07416   0.02581  -0.02008  -0.13556   0.04799
  62        2S          0.43179   0.84088   0.32912   0.41372  -0.18604
  63        2PX        -0.01840   0.03052   0.01367  -0.06270  -0.09906
  64        2PY         0.06889  -0.13943   0.23293  -0.00881  -0.05770
  65        2PZ         0.02218  -0.14867   0.03717  -0.08925  -0.11523
  66        3S         -2.33888  -2.06115  -0.26838   1.30518  -0.56450
  67        3PX         0.36793  -0.06834  -1.14171   0.06071   1.85024
  68        3PY        -0.58279   0.19797  -0.80597   1.49399  -0.48201
  69        3PZ        -0.14739   0.16215   0.07038   0.27224   0.53741
  70        4XX        -0.07881  -0.20390  -0.12084  -0.24974   0.25560
  71        4YY         0.13303  -0.24328  -0.17430  -0.23199   0.15111
  72        4ZZ         0.10530  -0.02625   0.02045  -0.27993   0.27492
  73        4XY        -0.11270   0.39088   0.01300  -0.11001   0.08711
  74        4XZ         0.00293   0.00712   0.05026  -0.04857   0.00327
  75        4YZ         0.02573   0.04001   0.03391  -0.04411   0.04295
  76 6   H  1S         -0.17902  -0.09104   0.08483   0.09155  -0.08203
  77        2S          0.08032   0.09707  -0.88368  -0.42750  -0.18655
  78 7   H  1S          0.08588   0.20712  -0.26529   0.08611  -0.02123
  79        2S         -0.26101   0.03167   0.48916  -0.38945   0.28502
  80 8   H  1S          0.03311  -0.01407   0.15426  -0.01888   0.13504
  81        2S          0.40509   0.07694   1.06789  -0.13472   0.40326
  82 9   H  1S          0.08030  -0.10209  -0.14323   0.07288   0.02732
  83        2S          0.27736   0.14220   1.06210  -0.57297   0.10068
  84 10  H  1S         -0.21218   0.33728   0.11336   0.15807  -0.08795
  85        2S         -0.61250   0.14486   0.58240   0.21144   0.35655
  86 11  H  1S         -0.04587   0.17337   0.16630   0.15384  -0.17704
  87        2S          0.04197   0.31307   0.53589   0.23783  -0.35216
  88 12  H  1S          0.03426  -0.13814   0.04823   0.03674  -0.13282
  89        2S          0.40481   0.95697  -0.72112   0.56977   0.48960
  90 13  H  1S          0.15535  -0.23783   0.02356  -0.16453   0.06171
  91        2S         -0.95220   0.40418   0.14932  -0.42610   1.52569
                          86        87        88        89        90
     Eigenvalues --    -0.00000  -0.00000  -0.00000  -0.00000  -0.00000
   1 1   C  1S          0.00502  -0.10116  -0.02880  -0.19330  -0.05510
   2        2S         -0.25744   0.77456   0.32030  -0.76176   0.79059
   3        2PX         0.30503  -0.00141  -0.03551  -0.12467   0.02359
   4        2PY         0.19546   0.10988  -0.13757   0.26191   0.10270
   5        2PZ         0.04994  -0.12028   0.00884  -0.01936  -0.07390
   6        3S          0.11375  -0.08830   0.55821   6.57827  -0.59576
   7        3PX        -0.52907  -0.02481   0.09204  -1.61814  -0.35689
   8        3PY        -0.26388  -0.33044  -0.29294  -0.23857  -0.01136
   9        3PZ        -0.29599  -0.10731   0.55180  -1.42429   0.79130
  10        4XX        -0.16651  -0.10302  -0.28597  -0.13414  -0.21003
  11        4YY         0.32350  -0.59534  -0.40705  -0.24223  -0.28050
  12        4ZZ         0.06260  -0.40716  -0.05195  -0.35826  -0.07216
  13        4XY        -0.06609  -0.10681   0.12375   0.01277   0.11125
  14        4XZ        -0.03947  -0.27241  -0.00596   0.06940   0.15296
  15        4YZ        -0.04688   0.05079  -0.08151   0.03124  -0.05697
  16 2   C  1S          0.00588   0.02062   0.27339   0.10461  -0.04717
  17        2S         -0.17276   0.28599  -1.77835   0.66749   0.73493
  18        2PX        -0.18562  -0.02653   0.04133  -0.07771  -0.02290
  19        2PY         0.37707  -0.16468   0.13188   0.11373  -0.11755
  20        2PZ         0.15314  -0.07418   0.08216  -0.12233   0.00089
  21        3S          0.56204  -0.37452  -1.88696  -4.61712  -0.16097
  22        3PX        -0.19336   0.26780  -0.01675   1.77783  -0.04334
  23        3PY        -0.36150  -0.06223  -0.40907   0.78738   0.13100
  24        3PZ        -0.20685   0.46117  -0.49289   0.65111  -0.44328
  25        4XX         0.29125  -0.25447   1.24376   0.03140  -0.12536
  26        4YY        -0.19693   0.17399   1.34030   0.06051  -0.24878
  27        4ZZ        -0.03925   0.20175   1.17651   0.11410  -0.00111
  28        4XY        -0.13906   0.10077   0.05072  -0.05398  -0.02681
  29        4XZ        -0.03625  -0.00658  -0.04394   0.01294  -0.12974
  30        4YZ        -0.00852  -0.02394  -0.02661  -0.12829  -0.10139
  31 3   C  1S          0.05810   0.06960   0.03091  -0.04564  -0.02208
  32        2S         -0.00943  -0.10157  -0.00243   0.11535   0.62895
  33        2PX        -0.01884   0.28970  -0.19804   0.01576   0.21109
  34        2PY         0.06560  -0.11237   0.40598   0.13806  -0.11667
  35        2PZ         0.06168   0.35201  -0.01704   0.01136  -0.24312
  36        3S         -0.04673  -0.39322  -0.11040   0.72864  -0.16105
  37        3PX        -0.51185  -0.07391   0.73144   2.45716  -0.29739
  38        3PY         0.31914   0.28549  -1.80085  -1.04321   0.25182
  39        3PZ         0.09965  -0.54209  -0.06557  -0.33309   0.58425
  40        4XX        -0.14559   0.28902  -0.09829  -0.04173  -0.20276
  41        4YY        -0.28869   0.18019   0.05809  -0.23422  -0.08600
  42        4ZZ         0.35796   0.37614   0.03261  -0.31289  -0.21757
  43        4XY        -0.17557  -0.16613   0.09416  -0.15135  -0.12565
  44        4XZ         0.00526  -0.05506   0.06918  -0.15697   0.03943
  45        4YZ        -0.05989   0.01958   0.04760   0.09140  -0.06052
  46 4   C  1S          0.05691   0.00630  -0.00112  -0.15602   0.00080
  47        2S          0.10188   0.12192   0.40239   0.89745  -0.16165
  48        2PX        -0.03916   0.15378   0.20986  -0.04853   0.24674
  49        2PY         0.81863   0.07266  -0.11612  -0.16663   0.06397
  50        2PZ         0.16206  -0.06926   0.05033  -0.00474   0.09086
  51        3S         -1.05821  -0.05371  -1.63628   0.47119   0.34889
  52        3PX         0.32960   0.19117  -0.74961   0.24614  -0.82925
  53        3PY        -0.97318  -0.13406   0.63320   2.06753   0.13235
  54        3PZ        -0.42628  -0.12304   0.41391  -0.24285  -0.38116
  55        4XX         0.16087  -0.02291  -0.28632  -0.45765   0.03901
  56        4YY         0.15590   0.14374  -0.06185  -0.43894   0.02077
  57        4ZZ         0.24658   0.02812  -0.06619  -0.51736   0.25276
  58        4XY         0.33220   0.07247   0.07460   0.10640   0.01920
  59        4XZ         0.01871   0.31406  -0.00062  -0.03476   0.00632
  60        4YZ        -0.00240   0.01003   0.01071   0.09756  -0.06466
  61 5   C  1S          0.03513   0.07746  -0.00379   0.00951  -0.02169
  62        2S         -0.11507  -0.81589  -0.13565   0.54037   0.22682
  63        2PX         0.04649  -0.22787   0.16251  -0.02058  -0.02240
  64        2PY         0.12237   0.00223   0.00880   0.08204   0.05959
  65        2PZ         0.15910   0.31169   0.04014   0.00410   0.30168
  66        3S         -1.11123   0.24915   1.08395  -2.05144   0.24108
  67        3PX        -0.13413   0.38774  -0.87126  -3.05572  -0.01174
  68        3PY         0.22116  -0.20737   0.01090  -0.82404   0.29644
  69        3PZ        -0.03620  -0.34526  -0.29353   0.07792  -0.55293
  70        4XX         0.44869   0.14622  -0.01066  -0.24326  -0.13785
  71        4YY         0.37133   0.28409   0.08894   0.00177   0.08769
  72        4ZZ        -0.13582   0.50655   0.00158  -0.07929  -0.20573
  73        4XY        -0.10492   0.05913  -0.02885  -0.16496   0.00875
  74        4XZ         0.02329  -0.01960  -0.06736  -0.00147  -0.10509
  75        4YZ         0.07854  -0.06289  -0.02311   0.03364  -0.02375
  76 6   H  1S         -0.02481  -0.44215   0.05502  -0.35408   0.34873
  77        2S         -0.12181   0.13504   0.11168  -1.16197   0.24399
  78 7   H  1S         -0.04168   0.15505  -0.16217  -0.10340  -0.58962
  79        2S          0.36016  -0.01614  -0.36953   0.17872   0.53872
  80 8   H  1S          0.13353   0.08409  -0.22197   0.28014  -0.65205
  81        2S         -0.23560   0.11410   0.19186   0.40946   0.69433
  82 9   H  1S         -0.05588  -0.20180  -0.15622   0.06661   0.34939
  83        2S          0.36960   0.19293   0.77994  -0.36713  -0.32644
  84 10  H  1S         -0.11097   0.08972  -0.09081   0.00892  -0.18684
  85        2S          0.73589   0.53025  -0.05394   0.22503  -0.06615
  86 11  H  1S          0.01407  -0.22566   0.02330   0.03865  -0.08570
  87        2S          0.09962   0.06355   0.46488  -0.44725  -0.74123
  88 12  H  1S          0.07034   0.19050  -0.07852  -0.03300   0.04911
  89        2S          0.19746  -0.59137  -0.49144  -0.58279   0.03814
  90 13  H  1S          0.14140  -0.01724   0.02236   0.27971   0.10139
  91        2S         -0.13555  -0.02202   1.50889   0.75006  -0.29222
                          91
     Eigenvalues --    -0.00000
   1 1   C  1S          0.16093
   2        2S          0.33318
   3        2PX        -0.01346
   4        2PY         0.32447
   5        2PZ        -0.03328
   6        3S         -4.27418
   7        3PX         1.71277
   8        3PY        -1.15096
   9        3PZ        -0.26854
  10        4XX         0.24648
  11        4YY         0.08408
  12        4ZZ         0.48579
  13        4XY        -0.00616
  14        4XZ        -0.04595
  15        4YZ         0.16080
  16 2   C  1S          0.15132
  17        2S         -1.19659
  18        2PX        -0.00799
  19        2PY        -0.03292
  20        2PZ        -0.01980
  21        3S          1.12443
  22        3PX        -0.48731
  23        3PY        -0.93681
  24        3PZ         0.40373
  25        4XX         0.85299
  26        4YY         0.70477
  27        4ZZ         0.56627
  28        4XY         0.07972
  29        4XZ        -0.05649
  30        4YZ        -0.11490
  31 3   C  1S         -0.13541
  32        2S          1.04637
  33        2PX        -0.04975
  34        2PY        -0.06120
  35        2PZ        -0.00126
  36        3S         -0.11583
  37        3PX        -0.20038
  38        3PY         1.01038
  39        3PZ         0.22215
  40        4XX        -0.60863
  41        4YY        -0.54963
  42        4ZZ        -0.64015
  43        4XY         0.09073
  44        4XZ        -0.09841
  45        4YZ        -0.05228
  46 4   C  1S         -0.13576
  47        2S          0.07492
  48        2PX        -0.20828
  49        2PY         0.14314
  50        2PZ         0.10835
  51        3S          1.87366
  52        3PX         0.15958
  53        3PY        -0.31923
  54        3PZ        -0.70620
  55        4XX        -0.30098
  56        4YY        -0.16250
  57        4ZZ        -0.61278
  58        4XY         0.03290
  59        4XZ        -0.01634
  60        4YZ         0.05255
  61 5   C  1S         -0.13614
  62        2S          0.59689
  63        2PX        -0.13739
  64        2PY        -0.18580
  65        2PZ         0.05340
  66        3S          1.20053
  67        3PX         2.02596
  68        3PY         1.44630
  69        3PZ         0.43926
  70        4XX        -0.23060
  71        4YY        -0.38937
  72        4ZZ        -0.31171
  73        4XY         0.03880
  74        4XZ         0.06413
  75        4YZ         0.13809
  76 6   H  1S         -0.00589
  77        2S         -0.40063
  78 7   H  1S          0.14785
  79        2S          0.36710
  80 8   H  1S         -0.02235
  81        2S          0.28713
  82 9   H  1S         -0.20338
  83        2S          0.23849
  84 10  H  1S          0.00318
  85        2S          0.10532
  86 11  H  1S          0.08333
  87        2S         -0.86714
  88 12  H  1S          0.09853
  89        2S          0.92146
  90 13  H  1S          0.13305
  91        2S         -0.77247
          Condensed to atoms (all electrons):
               1          2          3          4          5          6
     1  C    5.077372   0.334197  -0.065155  -0.068839   0.354795   0.398474
     2  C    0.334197   5.077372   0.354795  -0.068839  -0.065155  -0.032540
     3  C   -0.065155   0.354795   5.389003   0.347586  -0.064171   0.003934
     4  C   -0.068839  -0.068839   0.347586   5.022031   0.347586   0.003179
     5  C    0.354795  -0.065155  -0.064171   0.347586   5.389003  -0.041461
     6  H    0.398474  -0.032540   0.003934   0.003179  -0.041461   0.539326
     7  H    0.392667  -0.037514  -0.000011   0.003260  -0.047767  -0.034825
     8  H   -0.037513   0.392667  -0.047767   0.003260  -0.000011  -0.004104
     9  H   -0.032540   0.398474  -0.041461   0.003179   0.003934   0.001005
    10  H    0.001711   0.003714  -0.044851   0.395757  -0.041775  -0.000140
    11  H    0.003714   0.001711  -0.041774   0.395757  -0.044850   0.000027
    12  H   -0.032024   0.003571   0.003557  -0.031443   0.388829  -0.000298
    13  H    0.003571  -0.032024   0.388829  -0.031443   0.003556  -0.000059
               7          8          9         10         11         12
     1  C    0.392667  -0.037513  -0.032540   0.001711   0.003714  -0.032024
     2  C   -0.037514   0.392667   0.398474   0.003714   0.001711   0.003571
     3  C   -0.000011  -0.047767  -0.041461  -0.044851  -0.041774   0.003557
     4  C    0.003260   0.003260   0.003179   0.395757   0.395757  -0.031443
     5  C   -0.047767  -0.000011   0.003934  -0.041775  -0.044850   0.388829
     6  H   -0.034825  -0.004104   0.001005  -0.000140   0.000027  -0.000298
     7  H    0.560498   0.003383  -0.004104   0.000298  -0.000151  -0.000204
     8  H    0.003383   0.560497  -0.034825  -0.000151   0.000298  -0.000136
     9  H   -0.004104  -0.034825   0.539327   0.000027  -0.000140  -0.000059
    10  H    0.000298  -0.000151   0.000027   0.566044  -0.042894  -0.000231
    11  H   -0.000151   0.000298  -0.000140  -0.042894   0.566040  -0.000116
    12  H   -0.000204  -0.000136  -0.000059  -0.000231  -0.000116   0.489853
    13  H   -0.000136  -0.000204  -0.000298  -0.000116  -0.000231  -0.000062
              13
     1  C    0.003571
     2  C   -0.032024
     3  C    0.388829
     4  C   -0.031443
     5  C    0.003556
     6  H   -0.000059
     7  H   -0.000136
     8  H   -0.000204
     9  H   -0.000298
    10  H   -0.000116
    11  H   -0.000231
    12  H   -0.000062
    13  H    0.489853
 Mulliken charges:
               1
     1  C   -0.330429
     2  C   -0.330429
     3  C   -0.182513
     4  C   -0.321030
     5  C   -0.182513
     6  H    0.167481
     7  H    0.164606
     8  H    0.164606
     9  H    0.167481
    10  H    0.162607
    11  H    0.162609
    12  H    0.178762
    13  H    0.178762
 Sum of Mulliken charges =  -0.00000
 Mulliken charges with hydrogens summed into heavy atoms:
               1
     1  C    0.001658
     2  C    0.001658
     3  C   -0.003751
     4  C    0.004186
     5  C   -0.003751
 Electronic spatial extent (au):  <R**2>=            386.0368
 Charge=             -0.0000 electrons
 Dipole moment (field-independent basis, Debye):
    X=              0.0800    Y=             -0.0000    Z=              0.0000  Tot=              0.0800
 Quadrupole moment (field-independent basis, Debye-Ang):
   XX=            -31.6381   YY=            -31.3016   ZZ=            -32.8300
   XY=             -0.0000   XZ=              0.0000   YZ=             -0.0569
 Traceless Quadrupole moment (field-independent basis, Debye-Ang):
   XX=              0.2851   YY=              0.6216   ZZ=             -0.9067
   XY=             -0.0000   XZ=              0.0000   YZ=             -0.0569
 Octapole moment (field-independent basis, Debye-Ang**2):
  XXX=             -0.0167  YYY=             -0.0000  ZZZ=              0.0001  XYY=             -1.0353
  XXY=              0.0000  XXZ=             -0.0001  XZZ=              1.0165  YZZ=              0.0000
  YYZ=             -0.0000  XYZ=              0.2775
 Hexadecapole moment (field-independent basis, Debye-Ang**3):
 XXXX=           -254.6337 YYYY=           -212.6053 ZZZZ=            -56.0074 XXXY=             -0.0001
 XXXZ=              0.0001 YYYX=             -0.0001 YYYZ=              1.5373 ZZZX=             -0.0000
 ZZZY=             -1.4498 XXYY=            -78.4237 XXZZ=            -49.0381 YYZZ=            -49.3938
 XXYZ=              1.0011 YYXZ=              0.0000 ZZXY=              0.0000
 N-N= 1.687600533234D+02 E-N=-7.886278325660D+02  KE= 1.936837049162D+02
 No NMR shielding tensors so no spin-rotation constants.
 Leave Link  601 at Wed Jun  2 22:11:18 2021, MaxMem=  1073741824 cpu:               0.5 elap:               0.1
 (Enter /Applications/g16/l9999.exe)
 1\1\GINC-MAC-MINI\SP\CASSCF\6-31G(d)\C5H8\TETSU\02-Jun-2021\0\\#p cass
 cf(2,2)/6-31g(d) guess=read pop=no geom=allcheck\\Title Card Required\
 \0,1\C,0,1.024872,0.772022,-0.091024\C,0,1.024868,-0.772027,0.091022\C
 ,0,-0.408439,-1.174719,-0.078831\C,0,-1.343203,0.000004,-0.000004\C,0,
 -0.40843,1.174721,0.078841\H,0,1.697516,1.278691,0.615685\H,0,1.398694
 ,1.037633,-1.096417\H,0,1.3987,-1.037644,1.096409\H,0,1.697501,-1.2786
 99,-0.615696\H,0,-2.022861,0.053956,-0.873123\H,0,-2.022885,-0.053944,
 0.873094\H,0,-0.742327,2.206653,0.11941\H,0,-0.742342,-2.20665,-0.1193
 91\\Version=EM64M-G16RevB.01\State=1-A\HF=-193.900369\RMSD=0.000e+00\D
 ipole=0.0314756,0.0000006,-0.0000018\Quadrupole=0.2119869,0.4621476,-0
 .6741345,0.000007,-0.0000019,-0.042286\PG=C01 [X(C5H8)]\\@


 REFRAIN FROM ILLUSIONS, INSIST ON WORK AND NOT WORDS,
 PATIENTLY SEEK DIVINE AND SCIENTIFIC TRUTH.
 LAST WORDS OF MARIA MENDELEEVA TO HER SON DMITRI, C. 1850
 Job cpu time:       0 days  0 hours  0 minutes 51.5 seconds.
 Elapsed time:       0 days  0 hours  0 minutes 10.6 seconds.
 File lengths (MBytes):  RWF=      6 Int=      0 D2E=      0 Chk=      2 Scr=      1
 Normal termination of Gaussian 16 at Wed Jun  2 22:11:18 2021.
