 Entering Gaussian System, Link 0=g16
 Input=methylazulene.gjf
 Output=methylazulene.log
 Initial command:
 /home/wangzhe/g16/l1.exe "/home/wangzhe/g16/Scratch/Gau-179788.inp" -scrdir="/home/wangzhe/g16/Scratch/"
 Default is to use a total of  16 processors:
                               16 via shared-memory
                                1 via Linda
 Entering Link 1 = /home/wangzhe/g16/l1.exe PID=    179790.
  
 Copyright (c) 1988-2017, Gaussian, Inc.  All Rights Reserved.
  
 This is part of the Gaussian(R) 16 program.  It is based on
 the Gaussian(R) 09 system (copyright 2009, Gaussian, Inc.),
 the Gaussian(R) 03 system (copyright 2003, Gaussian, Inc.),
 the Gaussian(R) 98 system (copyright 1998, Gaussian, Inc.),
 the Gaussian(R) 94 system (copyright 1995, Gaussian, Inc.),
 the Gaussian 92(TM) system (copyright 1992, Gaussian, Inc.),
 the Gaussian 90(TM) system (copyright 1990, Gaussian, Inc.),
 the Gaussian 88(TM) system (copyright 1988, Gaussian, Inc.),
 the Gaussian 86(TM) system (copyright 1986, Carnegie Mellon
 University), and the Gaussian 82(TM) system (copyright 1983,
 Carnegie Mellon University). Gaussian is a federally registered
 trademark of Gaussian, Inc.
  
 This software contains proprietary and confidential information,
 including trade secrets, belonging to Gaussian, Inc.
  
 This software is provided under written license and may be
 used, copied, transmitted, or stored only in accord with that
 written license.
  
 The following legend is applicable only to US Government
 contracts under FAR:
  
                    RESTRICTED RIGHTS LEGEND
  
 Use, reproduction and disclosure by the US Government is
 subject to restrictions as set forth in subparagraphs (a)
 and (c) of the Commercial Computer Software - Restricted
 Rights clause in FAR 52.227-19.
  
 Gaussian, Inc.
 340 Quinnipiac St., Bldg. 40, Wallingford CT 06492
  
  
 ---------------------------------------------------------------
 Warning -- This program may not be used in any manner that
 competes with the business of Gaussian, Inc. or will provide
 assistance to any competitor of Gaussian, Inc.  The licensee
 of this program is prohibited from giving any competitor of
 Gaussian, Inc. access to this program.  By using this program,
 the user acknowledges that Gaussian, Inc. is engaged in the
 business of creating and licensing software in the field of
 computational chemistry and represents and warrants to the
 licensee that it is not a competitor of Gaussian, Inc. and that
 it will not use this program in any manner prohibited above.
 ---------------------------------------------------------------
  

 Cite this work as:
 Gaussian 16, Revision B.01,
 M. J. Frisch, G. W. Trucks, H. B. Schlegel, G. E. Scuseria, 
 M. A. Robb, J. R. Cheeseman, G. Scalmani, V. Barone, 
 G. A. Petersson, H. Nakatsuji, X. Li, M. Caricato, A. V. Marenich, 
 J. Bloino, B. G. Janesko, R. Gomperts, B. Mennucci, H. P. Hratchian, 
 J. V. Ortiz, A. F. Izmaylov, J. L. Sonnenberg, D. Williams-Young, 
 F. Ding, F. Lipparini, F. Egidi, J. Goings, B. Peng, A. Petrone, 
 T. Henderson, D. Ranasinghe, V. G. Zakrzewski, J. Gao, N. Rega, 
 G. Zheng, W. Liang, M. Hada, M. Ehara, K. Toyota, R. Fukuda, 
 J. Hasegawa, M. Ishida, T. Nakajima, Y. Honda, O. Kitao, H. Nakai, 
 T. Vreven, K. Throssell, J. A. Montgomery, Jr., J. E. Peralta, 
 F. Ogliaro, M. J. Bearpark, J. J. Heyd, E. N. Brothers, K. N. Kudin, 
 V. N. Staroverov, T. A. Keith, R. Kobayashi, J. Normand, 
 K. Raghavachari, A. P. Rendell, J. C. Burant, S. S. Iyengar, 
 J. Tomasi, M. Cossi, J. M. Millam, M. Klene, C. Adamo, R. Cammi, 
 J. W. Ochterski, R. L. Martin, K. Morokuma, O. Farkas, 
 J. B. Foresman, and D. J. Fox, Gaussian, Inc., Wallingford CT, 2016.
 
 ******************************************
 Gaussian 16:  ES64L-G16RevB.01 20-Dec-2017
                28-May-2021 
 ******************************************
 %nprocshared=8
 Will use up to    8 processors via shared memory.
 %mem=10GB
 %chk=methylazulene.chk
 ----------------------------
 #p opt freq rwb97xd/6-31g(d)
 ----------------------------
 1/18=20,19=15,26=3,38=1/1,3;
 2/9=110,12=2,17=6,18=5,40=1/2;
 3/5=1,6=6,7=1,11=2,25=1,30=1,71=1,74=-58,116=1/1,2,3;
 4//1;
 5/5=2,38=5/2;
 6/7=2,8=2,9=2,10=2,28=1/1;
 7//1,2,3,16;
 1/18=20,19=15,26=3/3(2);
 2/9=110/2;
 99//99;
 2/9=110/2;
 3/5=1,6=6,7=1,11=2,25=1,30=1,71=1,74=-58,116=1/1,2,3;
 4/5=5,16=3,69=1/1;
 5/5=2,38=5/2;
 7//1,2,3,16;
 1/18=20,19=15,26=3/3(-5);
 2/9=110/2;
 6/7=2,8=2,9=2,10=2,19=2,28=1/1;
 99/9=1/99;
 Leave Link    1 at Fri May 28 11:30:18 2021, MaxMem=  1342177280 cpu:               0.2 elap:               0.0
 (Enter /home/wangzhe/g16/l101.exe)
 -------------------
 Title Card Required
 -------------------
 Symbolic Z-matrix:
 Charge =  0 Multiplicity = 1
 C                     0.555     3.732     0.758 
 H                     0.644     4.753     1.132 
 C                     0.077     3.583    -0.486 
 H                    -0.184     4.493    -1.027 
 C                    -0.152     2.374    -1.245 
 H                    -0.551     2.547    -2.243 
 C                     0.068     1.111    -0.859 
 C                    -0.192    -0.053    -1.688 
 H                    -0.584    -0.043    -2.691 
 C                     0.15     -1.128    -0.963 
 H                     0.085    -2.158    -1.275 
 C                     0.632    -0.695     0.334 
 C                     0.593     0.65      0.422 
 C                     0.981     2.732     1.711 
 H                     1.328     3.144     2.659 
 C                     1.003     1.398     1.579 
 H                     1.364     0.812     2.422 
 C                     1.11123  -1.672     1.42368 
 H                     2.13297  -1.46459   1.66435 
 H                     0.50752  -1.55387   2.29917 
 H                     1.02617  -2.67637   1.06464 
 
 ITRead=  0  0  0  0  0  0  0  0  0  0  0  0  0  0  0  0  0  0  0  0
 ITRead=  0
 MicOpt= -1 -1 -1 -1 -1 -1 -1 -1 -1 -1 -1 -1 -1 -1 -1 -1 -1 -1 -1 -1
 MicOpt= -1
 NAtoms=     21 NQM=       21 NQMF=       0 NMMI=      0 NMMIF=      0
                NMic=       0 NMicF=      0.
                    Isotopes and Nuclear Properties:
 (Nuclear quadrupole moments (NQMom) in fm**2, nuclear magnetic moments (NMagM)
  in nuclear magnetons)

  Atom         1           2           3           4           5           6           7           8           9          10
 IAtWgt=          12           1          12           1          12           1          12          12           1          12
 AtmWgt=  12.0000000   1.0078250  12.0000000   1.0078250  12.0000000   1.0078250  12.0000000  12.0000000   1.0078250  12.0000000
 NucSpn=           0           1           0           1           0           1           0           0           1           0
 AtZEff=  -0.0000000  -0.0000000  -0.0000000  -0.0000000  -0.0000000  -0.0000000  -0.0000000  -0.0000000  -0.0000000  -0.0000000
 NQMom=    0.0000000   0.0000000   0.0000000   0.0000000   0.0000000   0.0000000   0.0000000   0.0000000   0.0000000   0.0000000
 NMagM=    0.0000000   2.7928460   0.0000000   2.7928460   0.0000000   2.7928460   0.0000000   0.0000000   2.7928460   0.0000000
 AtZNuc=   6.0000000   1.0000000   6.0000000   1.0000000   6.0000000   1.0000000   6.0000000   6.0000000   1.0000000   6.0000000

  Atom        11          12          13          14          15          16          17          18          19          20
 IAtWgt=           1          12          12          12           1          12           1          12           1           1
 AtmWgt=   1.0078250  12.0000000  12.0000000  12.0000000   1.0078250  12.0000000   1.0078250  12.0000000   1.0078250   1.0078250
 NucSpn=           1           0           0           0           1           0           1           0           1           1
 AtZEff=  -0.0000000  -0.0000000  -0.0000000  -0.0000000  -0.0000000  -0.0000000  -0.0000000  -0.0000000  -0.0000000  -0.0000000
 NQMom=    0.0000000   0.0000000   0.0000000   0.0000000   0.0000000   0.0000000   0.0000000   0.0000000   0.0000000   0.0000000
 NMagM=    2.7928460   0.0000000   0.0000000   0.0000000   2.7928460   0.0000000   2.7928460   0.0000000   2.7928460   2.7928460
 AtZNuc=   1.0000000   6.0000000   6.0000000   6.0000000   1.0000000   6.0000000   1.0000000   6.0000000   1.0000000   1.0000000

  Atom        21
 IAtWgt=           1
 AtmWgt=   1.0078250
 NucSpn=           1
 AtZEff=  -0.0000000
 NQMom=    0.0000000
 NMagM=    2.7928460
 AtZNuc=   1.0000000
 Leave Link  101 at Fri May 28 11:30:18 2021, MaxMem=  1342177280 cpu:               0.5 elap:               0.1
 (Enter /home/wangzhe/g16/l103.exe)

 GradGradGradGradGradGradGradGradGradGradGradGradGradGradGradGradGradGrad
 Berny optimization.
 Initialization pass.
                           ----------------------------
                           !    Initial Parameters    !
                           ! (Angstroms and Degrees)  !
 --------------------------                            --------------------------
 ! Name  Definition              Value          Derivative Info.                !
 --------------------------------------------------------------------------------
 ! R1    R(1,2)                  1.091          estimate D2E/DX2                !
 ! R2    R(1,3)                  1.341          estimate D2E/DX2                !
 ! R3    R(1,14)                 1.4456         estimate D2E/DX2                !
 ! R4    R(3,4)                  1.0904         estimate D2E/DX2                !
 ! R5    R(3,5)                  1.4458         estimate D2E/DX2                !
 ! R6    R(5,6)                  1.0886         estimate D2E/DX2                !
 ! R7    R(5,7)                  1.3389         estimate D2E/DX2                !
 ! R8    R(7,8)                  1.4525         estimate D2E/DX2                !
 ! R9    R(7,13)                 1.4591         estimate D2E/DX2                !
 ! R10   R(8,9)                  1.0769         estimate D2E/DX2                !
 ! R11   R(8,10)                 1.341          estimate D2E/DX2                !
 ! R12   R(10,11)                1.0782         estimate D2E/DX2                !
 ! R13   R(10,12)                1.4498         estimate D2E/DX2                !
 ! R14   R(12,13)                1.3484         estimate D2E/DX2                !
 ! R15   R(12,18)                1.54           estimate D2E/DX2                !
 ! R16   R(13,16)                1.4374         estimate D2E/DX2                !
 ! R17   R(14,15)                1.0903         estimate D2E/DX2                !
 ! R18   R(14,16)                1.3407         estimate D2E/DX2                !
 ! R19   R(16,17)                1.0883         estimate D2E/DX2                !
 ! R20   R(18,19)                1.07           estimate D2E/DX2                !
 ! R21   R(18,20)                1.07           estimate D2E/DX2                !
 ! R22   R(18,21)                1.07           estimate D2E/DX2                !
 ! A1    A(2,1,3)              116.8133         estimate D2E/DX2                !
 ! A2    A(2,1,14)             113.4129         estimate D2E/DX2                !
 ! A3    A(3,1,14)             129.7738         estimate D2E/DX2                !
 ! A4    A(1,3,4)              116.9282         estimate D2E/DX2                !
 ! A5    A(1,3,5)              129.5237         estimate D2E/DX2                !
 ! A6    A(4,3,5)              113.5481         estimate D2E/DX2                !
 ! A7    A(3,5,6)              113.9814         estimate D2E/DX2                !
 ! A8    A(3,5,7)              127.6962         estimate D2E/DX2                !
 ! A9    A(6,5,7)              118.3225         estimate D2E/DX2                !
 ! A10   A(5,7,8)              124.1949         estimate D2E/DX2                !
 ! A11   A(5,7,13)             127.6084         estimate D2E/DX2                !
 ! A12   A(8,7,13)             108.1967         estimate D2E/DX2                !
 ! A13   A(7,8,9)              126.1058         estimate D2E/DX2                !
 ! A14   A(7,8,10)             106.7506         estimate D2E/DX2                !
 ! A15   A(9,8,10)             127.1436         estimate D2E/DX2                !
 ! A16   A(8,10,11)            126.4418         estimate D2E/DX2                !
 ! A17   A(8,10,12)            109.2098         estimate D2E/DX2                !
 ! A18   A(11,10,12)           124.3484         estimate D2E/DX2                !
 ! A19   A(10,12,13)           110.2831         estimate D2E/DX2                !
 ! A20   A(10,12,18)           123.1599         estimate D2E/DX2                !
 ! A21   A(13,12,18)           126.557          estimate D2E/DX2                !
 ! A22   A(7,13,12)            105.5599         estimate D2E/DX2                !
 ! A23   A(7,13,16)            130.1545         estimate D2E/DX2                !
 ! A24   A(12,13,16)           124.2856         estimate D2E/DX2                !
 ! A25   A(1,14,15)            113.9275         estimate D2E/DX2                !
 ! A26   A(1,14,16)            128.9204         estimate D2E/DX2                !
 ! A27   A(15,14,16)           117.1521         estimate D2E/DX2                !
 ! A28   A(13,16,14)           126.3229         estimate D2E/DX2                !
 ! A29   A(13,16,17)           115.9701         estimate D2E/DX2                !
 ! A30   A(14,16,17)           117.707          estimate D2E/DX2                !
 ! A31   A(12,18,19)           109.4712         estimate D2E/DX2                !
 ! A32   A(12,18,20)           109.4712         estimate D2E/DX2                !
 ! A33   A(12,18,21)           109.4712         estimate D2E/DX2                !
 ! A34   A(19,18,20)           109.4713         estimate D2E/DX2                !
 ! A35   A(19,18,21)           109.4712         estimate D2E/DX2                !
 ! A36   A(20,18,21)           109.4712         estimate D2E/DX2                !
 ! D1    D(2,1,3,4)              0.0825         estimate D2E/DX2                !
 ! D2    D(2,1,3,5)           -179.9992         estimate D2E/DX2                !
 ! D3    D(14,1,3,4)           179.9567         estimate D2E/DX2                !
 ! D4    D(14,1,3,5)            -0.125          estimate D2E/DX2                !
 ! D5    D(2,1,14,15)           -0.056          estimate D2E/DX2                !
 ! D6    D(2,1,14,16)          179.9773         estimate D2E/DX2                !
 ! D7    D(3,1,14,15)         -179.9337         estimate D2E/DX2                !
 ! D8    D(3,1,14,16)            0.0997         estimate D2E/DX2                !
 ! D9    D(1,3,5,6)           -179.9536         estimate D2E/DX2                !
 ! D10   D(1,3,5,7)              0.0839         estimate D2E/DX2                !
 ! D11   D(4,3,5,6)             -0.0331         estimate D2E/DX2                !
 ! D12   D(4,3,5,7)           -179.9955         estimate D2E/DX2                !
 ! D13   D(3,5,7,8)            179.9445         estimate D2E/DX2                !
 ! D14   D(3,5,7,13)            -0.0268         estimate D2E/DX2                !
 ! D15   D(6,5,7,8)             -0.0165         estimate D2E/DX2                !
 ! D16   D(6,5,7,13)          -179.9878         estimate D2E/DX2                !
 ! D17   D(5,7,8,9)              0.0193         estimate D2E/DX2                !
 ! D18   D(5,7,8,10)          -179.9956         estimate D2E/DX2                !
 ! D19   D(13,7,8,9)           179.9954         estimate D2E/DX2                !
 ! D20   D(13,7,8,10)           -0.0195         estimate D2E/DX2                !
 ! D21   D(5,7,13,12)          179.9744         estimate D2E/DX2                !
 ! D22   D(5,7,13,16)            0.0079         estimate D2E/DX2                !
 ! D23   D(8,7,13,12)           -0.0007         estimate D2E/DX2                !
 ! D24   D(8,7,13,16)         -179.9672         estimate D2E/DX2                !
 ! D25   D(7,8,10,11)         -179.9731         estimate D2E/DX2                !
 ! D26   D(7,8,10,12)            0.031          estimate D2E/DX2                !
 ! D27   D(9,8,10,11)            0.0118         estimate D2E/DX2                !
 ! D28   D(9,8,10,12)         -179.9841         estimate D2E/DX2                !
 ! D29   D(8,10,12,13)          -0.0333         estimate D2E/DX2                !
 ! D30   D(8,10,12,18)        -179.9836         estimate D2E/DX2                !
 ! D31   D(11,10,12,13)        179.9708         estimate D2E/DX2                !
 ! D32   D(11,10,12,18)          0.0205         estimate D2E/DX2                !
 ! D33   D(10,12,13,7)           0.0195         estimate D2E/DX2                !
 ! D34   D(10,12,13,16)        179.9885         estimate D2E/DX2                !
 ! D35   D(18,12,13,7)         179.9677         estimate D2E/DX2                !
 ! D36   D(18,12,13,16)         -0.0633         estimate D2E/DX2                !
 ! D37   D(10,12,18,19)        119.9668         estimate D2E/DX2                !
 ! D38   D(10,12,18,20)       -120.0332         estimate D2E/DX2                !
 ! D39   D(10,12,18,21)         -0.0332         estimate D2E/DX2                !
 ! D40   D(13,12,18,19)        -59.9752         estimate D2E/DX2                !
 ! D41   D(13,12,18,20)         60.0249         estimate D2E/DX2                !
 ! D42   D(13,12,18,21)       -179.9752         estimate D2E/DX2                !
 ! D43   D(7,13,16,14)          -0.0025         estimate D2E/DX2                !
 ! D44   D(7,13,16,17)         179.9962         estimate D2E/DX2                !
 ! D45   D(12,13,16,14)       -179.9634         estimate D2E/DX2                !
 ! D46   D(12,13,16,17)          0.0352         estimate D2E/DX2                !
 ! D47   D(1,14,16,13)          -0.0344         estimate D2E/DX2                !
 ! D48   D(1,14,16,17)         179.967          estimate D2E/DX2                !
 ! D49   D(15,14,16,13)        179.9999         estimate D2E/DX2                !
 ! D50   D(15,14,16,17)          0.0012         estimate D2E/DX2                !
 --------------------------------------------------------------------------------
 Trust Radius=3.00D-01 FncErr=1.00D-07 GrdErr=1.00D-06 EigMax=2.50D+02 EigMin=1.00D-04
 Number of steps in this run=    118 maximum allowed number of steps=    126.
 GradGradGradGradGradGradGradGradGradGradGradGradGradGradGradGradGradGrad

 Leave Link  103 at Fri May 28 11:30:18 2021, MaxMem=  1342177280 cpu:               0.0 elap:               0.0
 (Enter /home/wangzhe/g16/l202.exe)
                          Input orientation:                          
 ---------------------------------------------------------------------
 Center     Atomic      Atomic             Coordinates (Angstroms)
 Number     Number       Type             X           Y           Z
 ---------------------------------------------------------------------
      1          6           0        0.555000    3.732000    0.758000
      2          1           0        0.644000    4.753000    1.132000
      3          6           0        0.077000    3.583000   -0.486000
      4          1           0       -0.184000    4.493000   -1.027000
      5          6           0       -0.152000    2.374000   -1.245000
      6          1           0       -0.551000    2.547000   -2.243000
      7          6           0        0.068000    1.111000   -0.859000
      8          6           0       -0.192000   -0.053000   -1.688000
      9          1           0       -0.584000   -0.043000   -2.691000
     10          6           0        0.150000   -1.128000   -0.963000
     11          1           0        0.085000   -2.158000   -1.275000
     12          6           0        0.632000   -0.695000    0.334000
     13          6           0        0.593000    0.650000    0.422000
     14          6           0        0.981000    2.732000    1.711000
     15          1           0        1.328000    3.144000    2.659000
     16          6           0        1.003000    1.398000    1.579000
     17          1           0        1.364000    0.812000    2.422000
     18          6           0        1.111231   -1.672003    1.423680
     19          1           0        2.132974   -1.464595    1.664351
     20          1           0        0.507518   -1.553872    2.299166
     21          1           0        1.026173   -2.676371    1.064638
 ---------------------------------------------------------------------
                    Distance matrix (angstroms):
                    1          2          3          4          5
     1  C    0.000000
     2  H    1.090980   0.000000
     3  C    1.340978   2.075648   0.000000
     4  H    2.076407   2.326900   1.090368   0.000000
     5  C    2.521115   3.455920   1.445753   2.130425   0.000000
     6  H    3.410786   4.205364   2.134181   2.323846   1.088639
     7  C    3.117932   4.190468   2.499999   3.395534   1.338867
     8  C    4.568058   5.634619   3.838966   4.593811   2.467423
     9  H    5.238659   6.254992   4.294976   4.848112   2.849461
    10  C    5.171602   6.262525   4.735650   5.631278   3.526292
    11  H    6.248687   7.339486   5.794969   6.661056   4.538292
    12  C    4.447925   5.506147   4.391094   5.425267   3.539302
    13  C    3.100494   4.164290   3.113392   4.179950   2.511193
    14  C    1.445574   2.129143   2.523534   3.457599   3.185873
    15  H    2.134730   2.321307   3.413026   4.206250   4.245529
    16  C    2.514419   3.403633   3.145779   4.216542   3.203370
    17  H    3.456845   4.208798   4.217970   5.276520   4.264386
    18  C    5.473187   6.448570   5.686086   6.759491   5.008767
    19  H    5.506003   6.415522   5.859117   6.935753   5.331064
    20  H    5.506168   6.415414   5.859176   6.935866   5.331440
    21  H    6.432981   7.439499   6.518062   7.565669   5.677038
                    6          7          8          9         10
     6  H    0.000000
     7  C    2.088232   0.000000
     8  C    2.682705   1.452493   0.000000
     9  H    2.628668   2.261204   1.076928   0.000000
    10  C    3.954166   2.242914   1.340975   2.168401   0.000000
    11  H    4.845466   3.295407   2.162943   2.631699   1.078179
    12  C    4.307085   2.236734   2.275879   3.324814   1.449835
    13  C    3.465483   1.459146   2.358502   3.399463   2.296902
    14  C    4.244451   3.172713   4.548116   5.433917   4.768693
    15  H    5.283621   4.254058   5.606034   6.514232   5.723334
    16  C    4.282850   2.626868   3.769180   4.777860   3.683755
    17  H    5.332886   3.540336   4.479002   5.537915   4.086028
    18  C    5.831599   3.747541   3.741943   4.738992   2.629856
    19  H    6.209992   4.155130   4.316985   5.326534   3.308845
    20  H    6.210385   4.155566   4.317341   5.326903   3.309216
    21  H    6.380560   4.354613   3.992873   4.861287   2.697489
                   11         12         13         14         15
    11  H    0.000000
    12  C    2.242423   0.000000
    13  C    3.320051   1.348440   0.000000
    14  C    5.799234   3.709752   2.479272   0.000000
    15  H    6.718081   4.541802   3.429931   1.090347   0.000000
    16  C    4.651148   2.463395   1.437447   1.340695   2.078591
    17  H    4.911675   2.677054   2.149578   2.082933   2.344289
    18  C    2.927835   1.540000   2.581400   4.415287   4.976635
    19  H    3.648944   2.148263   2.895940   4.352083   4.782934
    20  H    3.649405   2.148263   2.896223   4.351875   4.782538
    21  H    2.574572   2.148263   3.415460   5.447045   6.042335
                   16         17         18         19         20
    16  C    0.000000
    17  H    1.088286   0.000000
    18  C    3.075835   2.689016   0.000000
    19  H    3.078729   2.519571   1.070000   0.000000
    20  H    3.078585   2.519126   1.070000   1.747303   0.000000
    21  H    4.106775   3.758363   1.070000   1.747303   1.747303
                   21
    21  H    0.000000
 Stoichiometry    C11H10
 Framework group  C1[X(C11H10)]
 Deg. of freedom    57
 Full point group                 C1      NOp   1
 Largest Abelian subgroup         C1      NOp   1
 Largest concise Abelian subgroup C1      NOp   1
                         Standard orientation:                         
 ---------------------------------------------------------------------
 Center     Atomic      Atomic             Coordinates (Angstroms)
 Number     Number       Type             X           Y           Z
 ---------------------------------------------------------------------
      1          6           0       -2.687652   -0.596335    0.000437
      2          1           0       -3.713364   -0.968025   -0.000325
      3          6           0       -2.526686    0.734946   -0.000368
      4          1           0       -3.432528    1.341866   -0.000321
      5          6           0       -1.309110    1.514504    0.000274
      6          1           0       -1.472806    2.590765    0.000137
      7          6           0       -0.048403    1.063745    0.000299
      8          6           0        1.124736    1.920180   -0.000192
      9          1           0        1.124265    2.997108   -0.000333
     10          6           0        2.194013    1.110946   -0.000098
     11          1           0        3.228114    1.416076    0.000029
     12          6           0        1.748185   -0.268640   -0.000294
     13          6           0        0.400903   -0.324502    0.000225
     14          6           0       -1.695663   -1.647831   -0.000241
     15          1           0       -2.117146   -2.653420   -0.000435
     16          6           0       -0.358940   -1.544704   -0.000042
     17          1           0        0.219672   -2.466427   -0.000108
     18          6           0        2.715903   -1.466606    0.000119
     19          1           0        2.547671   -2.060702    0.873989
     20          1           0        2.547635   -2.061333   -0.873314
     21          1           0        3.724778   -1.110135   -0.000031
 ---------------------------------------------------------------------
 Rotational constants (GHZ):           2.0627388           1.0250738           0.6876428
 Leave Link  202 at Fri May 28 11:30:18 2021, MaxMem=  1342177280 cpu:               0.0 elap:               0.0
 (Enter /home/wangzhe/g16/l301.exe)
 Standard basis: 6-31G(d) (6D, 7F)
 Ernie: Thresh=  0.10000D-02 Tol=  0.10000D-05 Strict=F.
 There are   185 symmetry adapted cartesian basis functions of A   symmetry.
 There are   185 symmetry adapted basis functions of A   symmetry.
   185 basis functions,   348 primitive gaussians,   185 cartesian basis functions
    38 alpha electrons       38 beta electrons
       nuclear repulsion energy       544.7139828915 Hartrees.
 IExCor= 4639 DFT=T Ex+Corr=wB97XD ExCW=0 ScaHFX=  1.000000
 ScaDFX=  1.000000  1.000000  1.000000  1.000000 ScalE2=  1.000000  1.000000
 IRadAn=      5 IRanWt=     -1 IRanGd=            0 ICorTp=0 IEmpDi=121
 HFx  wShort=  0.000000 wLong=  0.200000 cFull=  0.222036 cShort=  0.000000 cLong=  0.777964
 DFx  wShort=  0.000000 wLong=  0.200000 cFull=  0.000000 cShort=  0.000000 cLong=  1.000000
 NAtoms=   21 NActive=   21 NUniq=   21 SFac= 1.00D+00 NAtFMM=   60 NAOKFM=F Big=F
 Integral buffers will be    131072 words long.
 Raffenetti 2 integral format.
 Two-electron integral symmetry is turned on.
 R6Disp:  Grimme-D2 Dispersion energy=       -0.0123341913 Hartrees.
 Nuclear repulsion after empirical dispersion term =      544.7016487003 Hartrees.
 Leave Link  301 at Fri May 28 11:30:18 2021, MaxMem=  1342177280 cpu:               0.1 elap:               0.0
 (Enter /home/wangzhe/g16/l302.exe)
 NPDir=0 NMtPBC=     1 NCelOv=     1 NCel=       1 NClECP=     1 NCelD=      1
         NCelK=      1 NCelE2=     1 NClLst=     1 CellRange=     0.0.
 One-electron integrals computed using PRISM.
 One-electron integral symmetry used in STVInt
 NBasis=   185 RedAO= T EigKep=  5.82D-04  NBF=   185
 NBsUse=   185 1.00D-06 EigRej= -1.00D+00 NBFU=   185
 Precomputing XC quadrature grid using
 IXCGrd= 4 IRadAn=           5 IRanWt=          -1 IRanGd=           0 AccXCQ= 0.00D+00.
 Generated NRdTot=       0 NPtTot=           0 NUsed=           0 NTot=          32
 NSgBfM=   185   185   185   185   185 MxSgAt=    21 MxSgA2=    21.
 Leave Link  302 at Fri May 28 11:30:18 2021, MaxMem=  1342177280 cpu:               0.7 elap:               0.1
 (Enter /home/wangzhe/g16/l303.exe)
 DipDrv:  MaxL=1.
 Leave Link  303 at Fri May 28 11:30:18 2021, MaxMem=  1342177280 cpu:               0.1 elap:               0.0
 (Enter /home/wangzhe/g16/l401.exe)
 ExpMin= 1.61D-01 ExpMax= 3.05D+03 ExpMxC= 4.57D+02 IAcc=3 IRadAn=         5 AccDes= 0.00D+00
 Harris functional with IExCor= 4639 and IRadAn=       5 diagonalized for initial guess.
 HarFok:  IExCor= 4639 AccDes= 0.00D+00 IRadAn=         5 IDoV= 1 UseB2=F ITyADJ=14
 ICtDFT=  3500011 ScaDFX=  1.000000  1.000000  1.000000  1.000000
 FoFCou: FMM=F IPFlag=           0 FMFlag=      100000 FMFlg1=           0
         NFxFlg=           0 DoJE=T BraDBF=F KetDBF=T FulRan=T
         wScrn=  0.000000 ICntrl=       500 IOpCl=  0 I1Cent=   200000004 NGrid=           0
         NMat0=    1 NMatS0=      1 NMatT0=    0 NMatD0=    1 NMtDS0=    0 NMtDT0=    0
 Petite list used in FoFCou.
 Harris En= -405.344420228132    
 JPrj=0 DoOrth=F DoCkMO=F.
 Leave Link  401 at Fri May 28 11:30:18 2021, MaxMem=  1342177280 cpu:               3.6 elap:               0.5
 (Enter /home/wangzhe/g16/l502.exe)
 Integral symmetry usage will be decided dynamically.
 Closed shell SCF:
 Using DIIS extrapolation, IDIIS=  1040.
 NGot=  1342177280 LenX=  1342105174 LenY=  1342070508
 Requested convergence on RMS density matrix=1.00D-08 within 128 cycles.
 Requested convergence on MAX density matrix=1.00D-06.
 Requested convergence on             energy=1.00D-06.
 No special actions if energy rises.
 Fock matrices will be formed incrementally for  20 cycles.
 Integral accuracy reduced to 1.0D-05 until final iterations.

 Cycle   1  Pass 0  IDiag  1:
 FoFJK:  IHMeth= 1 ICntrl=       0 DoSepK=T KAlg= 0 I1Cent=           0 FoldK=F
 IRaf=         1 NMat=       1 IRICut=       1 DoRegI=T DoRafI=F ISym2E= 0 IDoP0=0 IntGTp=1.
 FoFCou: FMM=F IPFlag=           0 FMFlag=      100000 FMFlg1=           0
         NFxFlg=           0 DoJE=T BraDBF=F KetDBF=F FulRan=T
         wScrn=  0.000000 ICntrl=       500 IOpCl=  0 I1Cent=           0 NGrid=           0
         NMat0=    1 NMatS0=      1 NMatT0=    0 NMatD0=    1 NMtDS0=    0 NMtDT0=    0
 Symmetry not used in FoFCou.
 E= -424.898388702293    
 DIIS: error= 6.70D-02 at cycle   1 NSaved=   1.
 NSaved= 1 IEnMin= 1 EnMin= -424.898388702293     IErMin= 1 ErrMin= 6.70D-02
 ErrMax= 6.70D-02  0.00D+00 EMaxC= 1.00D-01 BMatC= 3.90D-01 BMatP= 3.90D-01
 IDIUse=3 WtCom= 3.30D-01 WtEn= 6.70D-01
 Coeff-Com:  0.100D+01
 Coeff-En:   0.100D+01
 Coeff:      0.100D+01
 Gap=     0.241 Goal=   None    Shift=    0.000
 GapD=    0.241 DampG=1.000 DampE=0.500 DampFc=0.5000 IDamp=-1.
 Damping current iteration by 5.00D-01
 RMSDP=2.76D-03 MaxDP=4.71D-02              OVMax= 5.52D-02

 Cycle   2  Pass 0  IDiag  1:
 RMSU=  1.38D-03    CP:  9.96D-01
 E= -424.944114023169     Delta-E=       -0.045725320875 Rises=F Damp=T
 DIIS: error= 3.39D-02 at cycle   2 NSaved=   2.
 NSaved= 2 IEnMin= 2 EnMin= -424.944114023169     IErMin= 2 ErrMin= 3.39D-02
 ErrMax= 3.39D-02  0.00D+00 EMaxC= 1.00D-01 BMatC= 9.42D-02 BMatP= 3.90D-01
 IDIUse=3 WtCom= 6.61D-01 WtEn= 3.39D-01
 Coeff-Com: -0.880D+00 0.188D+01
 Coeff-En:   0.000D+00 0.100D+01
 Coeff:     -0.582D+00 0.158D+01
 Gap=     0.267 Goal=   None    Shift=    0.000
 RMSDP=1.60D-03 MaxDP=2.62D-02 DE=-4.57D-02 OVMax= 4.88D-02

 Cycle   3  Pass 0  IDiag  1:
 RMSU=  1.17D-03    CP:  9.88D-01  1.78D+00
 E= -424.984724642234     Delta-E=       -0.040610619065 Rises=F Damp=F
 DIIS: error= 5.97D-03 at cycle   3 NSaved=   3.
 NSaved= 3 IEnMin= 3 EnMin= -424.984724642234     IErMin= 3 ErrMin= 5.97D-03
 ErrMax= 5.97D-03  0.00D+00 EMaxC= 1.00D-01 BMatC= 3.84D-03 BMatP= 9.42D-02
 IDIUse=3 WtCom= 9.40D-01 WtEn= 5.97D-02
 Coeff-Com: -0.338D+00 0.692D+00 0.646D+00
 Coeff-En:   0.000D+00 0.000D+00 0.100D+01
 Coeff:     -0.318D+00 0.651D+00 0.667D+00
 Gap=     0.255 Goal=   None    Shift=    0.000
 RMSDP=4.80D-04 MaxDP=1.06D-02 DE=-4.06D-02 OVMax= 3.09D-02

 Cycle   4  Pass 0  IDiag  1:
 RMSU=  3.08D-04    CP:  9.87D-01  1.92D+00  7.35D-01
 E= -424.988377583604     Delta-E=       -0.003652941370 Rises=F Damp=F
 DIIS: error= 2.38D-03 at cycle   4 NSaved=   4.
 NSaved= 4 IEnMin= 4 EnMin= -424.988377583604     IErMin= 4 ErrMin= 2.38D-03
 ErrMax= 2.38D-03  0.00D+00 EMaxC= 1.00D-01 BMatC= 5.20D-04 BMatP= 3.84D-03
 IDIUse=3 WtCom= 9.76D-01 WtEn= 2.38D-02
 Coeff-Com: -0.135D+00 0.275D+00 0.349D+00 0.511D+00
 Coeff-En:   0.000D+00 0.000D+00 0.146D-01 0.985D+00
 Coeff:     -0.132D+00 0.268D+00 0.341D+00 0.522D+00
 Gap=     0.257 Goal=   None    Shift=    0.000
 RMSDP=1.50D-04 MaxDP=3.35D-03 DE=-3.65D-03 OVMax= 8.84D-03

 Cycle   5  Pass 0  IDiag  1:
 RMSU=  7.72D-05    CP:  9.87D-01  1.91D+00  8.14D-01  7.22D-01
 E= -424.988938305276     Delta-E=       -0.000560721672 Rises=F Damp=F
 DIIS: error= 3.67D-04 at cycle   5 NSaved=   5.
 NSaved= 5 IEnMin= 5 EnMin= -424.988938305276     IErMin= 5 ErrMin= 3.67D-04
 ErrMax= 3.67D-04  0.00D+00 EMaxC= 1.00D-01 BMatC= 8.71D-06 BMatP= 5.20D-04
 IDIUse=3 WtCom= 9.96D-01 WtEn= 3.67D-03
 Coeff-Com:  0.136D-01-0.282D-01-0.183D-01 0.581D-01 0.975D+00
 Coeff-En:   0.000D+00 0.000D+00 0.000D+00 0.000D+00 0.100D+01
 Coeff:      0.135D-01-0.281D-01-0.182D-01 0.579D-01 0.975D+00
 Gap=     0.257 Goal=   None    Shift=    0.000
 RMSDP=4.16D-05 MaxDP=6.76D-04 DE=-5.61D-04 OVMax= 3.97D-03

 Cycle   6  Pass 0  IDiag  1:
 RMSU=  2.77D-05    CP:  9.87D-01  1.92D+00  8.24D-01  7.95D-01  1.16D+00
 E= -424.988970629599     Delta-E=       -0.000032324323 Rises=F Damp=F
 DIIS: error= 2.65D-04 at cycle   6 NSaved=   6.
 NSaved= 6 IEnMin= 6 EnMin= -424.988970629599     IErMin= 6 ErrMin= 2.65D-04
 ErrMax= 2.65D-04  0.00D+00 EMaxC= 1.00D-01 BMatC= 2.36D-06 BMatP= 8.71D-06
 IDIUse=3 WtCom= 9.97D-01 WtEn= 2.65D-03
 Coeff-Com:  0.217D-01-0.446D-01-0.498D-01-0.496D-01 0.333D+00 0.789D+00
 Coeff-En:   0.000D+00 0.000D+00 0.000D+00 0.000D+00 0.000D+00 0.100D+01
 Coeff:      0.217D-01-0.445D-01-0.496D-01-0.494D-01 0.332D+00 0.790D+00
 Gap=     0.257 Goal=   None    Shift=    0.000
 RMSDP=2.25D-05 MaxDP=3.90D-04 DE=-3.23D-05 OVMax= 2.76D-03

 Cycle   7  Pass 0  IDiag  1:
 RMSU=  1.43D-05    CP:  9.87D-01  1.92D+00  8.31D-01  8.14D-01  1.30D+00
                    CP:  1.33D+00
 E= -424.988981638172     Delta-E=       -0.000011008573 Rises=F Damp=F
 DIIS: error= 1.55D-04 at cycle   7 NSaved=   7.
 NSaved= 7 IEnMin= 7 EnMin= -424.988981638172     IErMin= 7 ErrMin= 1.55D-04
 ErrMax= 1.55D-04  0.00D+00 EMaxC= 1.00D-01 BMatC= 6.46D-07 BMatP= 2.36D-06
 IDIUse=3 WtCom= 9.98D-01 WtEn= 1.55D-03
 Coeff-Com: -0.260D-02 0.548D-02 0.343D-02-0.233D-01-0.233D+00 0.150D+00
 Coeff-Com:  0.110D+01
 Coeff-En:   0.000D+00 0.000D+00 0.000D+00 0.000D+00 0.000D+00 0.000D+00
 Coeff-En:   0.100D+01
 Coeff:     -0.260D-02 0.547D-02 0.342D-02-0.233D-01-0.233D+00 0.150D+00
 Coeff:      0.110D+01
 Gap=     0.257 Goal=   None    Shift=    0.000
 RMSDP=1.80D-05 MaxDP=3.65D-04 DE=-1.10D-05 OVMax= 2.49D-03

 Cycle   8  Pass 0  IDiag  1:
 RMSU=  6.28D-06    CP:  9.87D-01  1.92D+00  8.32D-01  8.22D-01  1.38D+00
                    CP:  1.85D+00  1.37D+00
 E= -424.988987130394     Delta-E=       -0.000005492222 Rises=F Damp=F
 DIIS: error= 8.57D-05 at cycle   8 NSaved=   8.
 NSaved= 8 IEnMin= 8 EnMin= -424.988987130394     IErMin= 8 ErrMin= 8.57D-05
 ErrMax= 8.57D-05  0.00D+00 EMaxC= 1.00D-01 BMatC= 1.54D-07 BMatP= 6.46D-07
 IDIUse=1 WtCom= 1.00D+00 WtEn= 0.00D+00
 Coeff-Com: -0.804D-02 0.165D-01 0.178D-01 0.536D-02-0.185D+00-0.169D+00
 Coeff-Com:  0.303D+00 0.102D+01
 Coeff:     -0.804D-02 0.165D-01 0.178D-01 0.536D-02-0.185D+00-0.169D+00
 Coeff:      0.303D+00 0.102D+01
 Gap=     0.257 Goal=   None    Shift=    0.000
 RMSDP=1.16D-05 MaxDP=2.22D-04 DE=-5.49D-06 OVMax= 1.72D-03

 Cycle   9  Pass 0  IDiag  1:
 RMSU=  2.92D-06    CP:  9.87D-01  1.92D+00  8.32D-01  8.23D-01  1.43D+00
                    CP:  2.15D+00  1.78D+00  1.38D+00
 E= -424.988988598780     Delta-E=       -0.000001468386 Rises=F Damp=F
 DIIS: error= 2.64D-05 at cycle   9 NSaved=   9.
 NSaved= 9 IEnMin= 9 EnMin= -424.988988598780     IErMin= 9 ErrMin= 2.64D-05
 ErrMax= 2.64D-05  0.00D+00 EMaxC= 1.00D-01 BMatC= 2.55D-08 BMatP= 1.54D-07
 IDIUse=1 WtCom= 1.00D+00 WtEn= 0.00D+00
 Coeff-Com: -0.222D-02 0.451D-02 0.543D-02 0.601D-02-0.132D-01-0.714D-01
 Coeff-Com: -0.152D+00 0.302D+00 0.922D+00
 Coeff:     -0.222D-02 0.451D-02 0.543D-02 0.601D-02-0.132D-01-0.714D-01
 Coeff:     -0.152D+00 0.302D+00 0.922D+00
 Gap=     0.257 Goal=   None    Shift=    0.000
 RMSDP=4.36D-06 MaxDP=8.26D-05 DE=-1.47D-06 OVMax= 6.50D-04

 Initial convergence to 1.0D-05 achieved.  Increase integral accuracy.
 Cycle  10  Pass 1  IDiag  1:
 E= -424.989102294787     Delta-E=       -0.000113696006 Rises=F Damp=F
 DIIS: error= 2.62D-05 at cycle   1 NSaved=   1.
 NSaved= 1 IEnMin= 1 EnMin= -424.989102294787     IErMin= 1 ErrMin= 2.62D-05
 ErrMax= 2.62D-05  0.00D+00 EMaxC= 1.00D-01 BMatC= 2.54D-07 BMatP= 2.54D-07
 IDIUse=1 WtCom= 1.00D+00 WtEn= 0.00D+00
 Coeff-Com:  0.100D+01
 Coeff:      0.100D+01
 Gap=     0.257 Goal=   None    Shift=    0.000
 RMSDP=4.36D-06 MaxDP=8.26D-05 DE=-1.14D-04 OVMax= 6.82D-05

 Cycle  11  Pass 1  IDiag  1:
 RMSU=  1.00D-05    CP:  1.00D+00
 E= -424.989102509422     Delta-E=       -0.000000214635 Rises=F Damp=F
 DIIS: error= 4.04D-06 at cycle   2 NSaved=   2.
 NSaved= 2 IEnMin= 2 EnMin= -424.989102509422     IErMin= 2 ErrMin= 4.04D-06
 ErrMax= 4.04D-06  0.00D+00 EMaxC= 1.00D-01 BMatC= 5.20D-09 BMatP= 2.54D-07
 IDIUse=1 WtCom= 1.00D+00 WtEn= 0.00D+00
 Coeff-Com: -0.549D-01 0.105D+01
 Coeff:     -0.549D-01 0.105D+01
 Gap=     0.257 Goal=   None    Shift=    0.000
 RMSDP=1.06D-06 MaxDP=1.74D-05 DE=-2.15D-07 OVMax= 4.87D-05

 Cycle  12  Pass 1  IDiag  1:
 RMSU=  8.49D-07    CP:  1.00D+00  1.06D+00
 E= -424.989102514496     Delta-E=       -0.000000005075 Rises=F Damp=F
 DIIS: error= 4.35D-06 at cycle   3 NSaved=   3.
 NSaved= 3 IEnMin= 3 EnMin= -424.989102514496     IErMin= 2 ErrMin= 4.04D-06
 ErrMax= 4.35D-06  0.00D+00 EMaxC= 1.00D-01 BMatC= 2.60D-09 BMatP= 5.20D-09
 IDIUse=1 WtCom= 1.00D+00 WtEn= 0.00D+00
 Coeff-Com: -0.387D-01 0.445D+00 0.593D+00
 Coeff:     -0.387D-01 0.445D+00 0.593D+00
 Gap=     0.257 Goal=   None    Shift=    0.000
 RMSDP=3.63D-07 MaxDP=7.58D-06 DE=-5.07D-09 OVMax= 2.09D-05

 Cycle  13  Pass 1  IDiag  1:
 RMSU=  3.28D-07    CP:  1.00D+00  1.07D+00  8.33D-01
 E= -424.989102517074     Delta-E=       -0.000000002577 Rises=F Damp=F
 DIIS: error= 1.81D-06 at cycle   4 NSaved=   4.
 NSaved= 4 IEnMin= 4 EnMin= -424.989102517074     IErMin= 4 ErrMin= 1.81D-06
 ErrMax= 1.81D-06  0.00D+00 EMaxC= 1.00D-01 BMatC= 2.19D-10 BMatP= 2.60D-09
 IDIUse=1 WtCom= 1.00D+00 WtEn= 0.00D+00
 Coeff-Com: -0.567D-02 0.171D-01 0.206D+00 0.782D+00
 Coeff:     -0.567D-02 0.171D-01 0.206D+00 0.782D+00
 Gap=     0.257 Goal=   None    Shift=    0.000
 RMSDP=1.66D-07 MaxDP=3.51D-06 DE=-2.58D-09 OVMax= 1.53D-05

 Cycle  14  Pass 1  IDiag  1:
 RMSU=  1.19D-07    CP:  1.00D+00  1.07D+00  9.68D-01  9.74D-01
 E= -424.989102517490     Delta-E=       -0.000000000416 Rises=F Damp=F
 DIIS: error= 7.64D-07 at cycle   5 NSaved=   5.
 NSaved= 5 IEnMin= 5 EnMin= -424.989102517490     IErMin= 5 ErrMin= 7.64D-07
 ErrMax= 7.64D-07  0.00D+00 EMaxC= 1.00D-01 BMatC= 3.24D-11 BMatP= 2.19D-10
 IDIUse=1 WtCom= 1.00D+00 WtEn= 0.00D+00
 Coeff-Com:  0.254D-02-0.452D-01-0.998D-02 0.267D+00 0.786D+00
 Coeff:      0.254D-02-0.452D-01-0.998D-02 0.267D+00 0.786D+00
 Gap=     0.257 Goal=   None    Shift=    0.000
 RMSDP=7.35D-08 MaxDP=1.29D-06 DE=-4.16D-10 OVMax= 9.58D-06

 Cycle  15  Pass 1  IDiag  1:
 RMSU=  4.85D-08    CP:  1.00D+00  1.07D+00  1.00D+00  1.11D+00  1.10D+00
 E= -424.989102517596     Delta-E=       -0.000000000106 Rises=F Damp=F
 DIIS: error= 5.60D-07 at cycle   6 NSaved=   6.
 NSaved= 6 IEnMin= 6 EnMin= -424.989102517596     IErMin= 6 ErrMin= 5.60D-07
 ErrMax= 5.60D-07  0.00D+00 EMaxC= 1.00D-01 BMatC= 8.27D-12 BMatP= 3.24D-11
 IDIUse=1 WtCom= 1.00D+00 WtEn= 0.00D+00
 Coeff-Com:  0.223D-02-0.208D-01-0.540D-01-0.572D-01 0.279D+00 0.851D+00
 Coeff:      0.223D-02-0.208D-01-0.540D-01-0.572D-01 0.279D+00 0.851D+00
 Gap=     0.257 Goal=   None    Shift=    0.000
 RMSDP=4.83D-08 MaxDP=9.50D-07 DE=-1.06D-10 OVMax= 6.80D-06

 Cycle  16  Pass 1  IDiag  1:
 RMSU=  2.35D-08    CP:  1.00D+00  1.07D+00  1.02D+00  1.17D+00  1.36D+00
                    CP:  1.31D+00
 E= -424.989102517643     Delta-E=       -0.000000000047 Rises=F Damp=F
 DIIS: error= 3.37D-07 at cycle   7 NSaved=   7.
 NSaved= 7 IEnMin= 7 EnMin= -424.989102517643     IErMin= 7 ErrMin= 3.37D-07
 ErrMax= 3.37D-07  0.00D+00 EMaxC= 1.00D-01 BMatC= 1.71D-12 BMatP= 8.27D-12
 IDIUse=1 WtCom= 1.00D+00 WtEn= 0.00D+00
 Coeff-Com: -0.782D-04 0.662D-02-0.138D-01-0.677D-01-0.124D+00 0.136D+00
 Coeff-Com:  0.106D+01
 Coeff:     -0.782D-04 0.662D-02-0.138D-01-0.677D-01-0.124D+00 0.136D+00
 Coeff:      0.106D+01
 Gap=     0.257 Goal=   None    Shift=    0.000
 RMSDP=3.36D-08 MaxDP=6.06D-07 DE=-4.74D-11 OVMax= 5.47D-06

 Cycle  17  Pass 1  IDiag  1:
 RMSU=  1.14D-08    CP:  1.00D+00  1.07D+00  1.03D+00  1.20D+00  1.49D+00
                    CP:  1.76D+00  1.41D+00
 E= -424.989102517658     Delta-E=       -0.000000000015 Rises=F Damp=F
 DIIS: error= 1.22D-07 at cycle   8 NSaved=   8.
 NSaved= 8 IEnMin= 8 EnMin= -424.989102517658     IErMin= 8 ErrMin= 1.22D-07
 ErrMax= 1.22D-07  0.00D+00 EMaxC= 1.00D-01 BMatC= 6.32D-13 BMatP= 1.71D-12
 IDIUse=1 WtCom= 1.00D+00 WtEn= 0.00D+00
 Coeff-Com: -0.640D-03 0.832D-02 0.819D-02-0.418D-02-0.129D+00-0.215D+00
 Coeff-Com:  0.427D+00 0.905D+00
 Coeff:     -0.640D-03 0.832D-02 0.819D-02-0.418D-02-0.129D+00-0.215D+00
 Coeff:      0.427D+00 0.905D+00
 Gap=     0.257 Goal=   None    Shift=    0.000
 RMSDP=1.93D-08 MaxDP=3.76D-07 DE=-1.50D-11 OVMax= 2.86D-06

 Cycle  18  Pass 1  IDiag  1:
 RMSU=  5.34D-09    CP:  1.00D+00  1.07D+00  1.03D+00  1.21D+00  1.56D+00
                    CP:  1.98D+00  1.88D+00  1.29D+00
 E= -424.989102517667     Delta-E=       -0.000000000009 Rises=F Damp=F
 DIIS: error= 4.46D-08 at cycle   9 NSaved=   9.
 NSaved= 9 IEnMin= 9 EnMin= -424.989102517667     IErMin= 9 ErrMin= 4.46D-08
 ErrMax= 4.46D-08  0.00D+00 EMaxC= 1.00D-01 BMatC= 7.30D-14 BMatP= 6.32D-13
 IDIUse=1 WtCom= 1.00D+00 WtEn= 0.00D+00
 Coeff-Com: -0.433D-04-0.554D-03 0.281D-02 0.155D-01 0.116D-01-0.435D-01
 Coeff-Com: -0.192D+00 0.907D-01 0.112D+01
 Coeff:     -0.433D-04-0.554D-03 0.281D-02 0.155D-01 0.116D-01-0.435D-01
 Coeff:     -0.192D+00 0.907D-01 0.112D+01
 Gap=     0.257 Goal=   None    Shift=    0.000
 RMSDP=8.01D-09 MaxDP=1.54D-07 DE=-8.98D-12 OVMax= 1.13D-06

 SCF Done:  E(RwB97XD) =  -424.989102518     A.U. after   18 cycles
            NFock= 18  Conv=0.80D-08     -V/T= 2.0088
 KE= 4.212930419140D+02 PE=-2.073478584497D+03 EE= 6.824947913655D+02
 Leave Link  502 at Fri May 28 11:30:32 2021, MaxMem=  1342177280 cpu:             106.8 elap:              13.4
 (Enter /home/wangzhe/g16/l601.exe)
 Copying SCF densities to generalized density rwf, IOpCl= 0 IROHF=0.

 **********************************************************************

            Population analysis using the SCF Density.

 **********************************************************************

 Orbital symmetries:
       Occupied  (A) (A) (A) (A) (A) (A) (A) (A) (A) (A) (A) (A)
                 (A) (A) (A) (A) (A) (A) (A) (A) (A) (A) (A) (A)
                 (A) (A) (A) (A) (A) (A) (A) (A) (A) (A) (A) (A)
                 (A) (A)
       Virtual   (A) (A) (A) (A) (A) (A) (A) (A) (A) (A) (A) (A)
                 (A) (A) (A) (A) (A) (A) (A) (A) (A) (A) (A) (A)
                 (A) (A) (A) (A) (A) (A) (A) (A) (A) (A) (A) (A)
                 (A) (A) (A) (A) (A) (A) (A) (A) (A) (A) (A) (A)
                 (A) (A) (A) (A) (A) (A) (A) (A) (A) (A) (A) (A)
                 (A) (A) (A) (A) (A) (A) (A) (A) (A) (A) (A) (A)
                 (A) (A) (A) (A) (A) (A) (A) (A) (A) (A) (A) (A)
                 (A) (A) (A) (A) (A) (A) (A) (A) (A) (A) (A) (A)
                 (A) (A) (A) (A) (A) (A) (A) (A) (A) (A) (A) (A)
                 (A) (A) (A) (A) (A) (A) (A) (A) (A) (A) (A) (A)
                 (A) (A) (A) (A) (A) (A) (A) (A) (A) (A) (A) (A)
                 (A) (A) (A) (A) (A) (A) (A) (A) (A) (A) (A) (A)
                 (A) (A) (A)
 The electronic state is 1-A.
 Alpha  occ. eigenvalues --  -10.31652 -10.31350 -10.31258 -10.30625 -10.30393
 Alpha  occ. eigenvalues --  -10.30185 -10.28867 -10.28646 -10.28422 -10.28040
 Alpha  occ. eigenvalues --  -10.27933  -0.97778  -0.92108  -0.88575  -0.83738
 Alpha  occ. eigenvalues --   -0.82657  -0.77355  -0.73331  -0.69163  -0.63696
 Alpha  occ. eigenvalues --   -0.62414  -0.59613  -0.56730  -0.53961  -0.53527
 Alpha  occ. eigenvalues --   -0.50599  -0.49386  -0.47403  -0.47028  -0.46460
 Alpha  occ. eigenvalues --   -0.45433  -0.42606  -0.41912  -0.40883  -0.40403
 Alpha  occ. eigenvalues --   -0.37341  -0.30156  -0.25375
 Alpha virt. eigenvalues --    0.00353   0.03696   0.16287   0.17201   0.19379
 Alpha virt. eigenvalues --    0.20788   0.21600   0.22489   0.24092   0.24906
 Alpha virt. eigenvalues --    0.25277   0.26983   0.28357   0.28699   0.28993
 Alpha virt. eigenvalues --    0.31453   0.31941   0.35578   0.36610   0.42104
 Alpha virt. eigenvalues --    0.44428   0.45800   0.48562   0.50620   0.52196
 Alpha virt. eigenvalues --    0.56710   0.59149   0.60734   0.62071   0.63166
 Alpha virt. eigenvalues --    0.63442   0.65183   0.66747   0.67215   0.68566
 Alpha virt. eigenvalues --    0.69258   0.71002   0.71394   0.72003   0.72655
 Alpha virt. eigenvalues --    0.74291   0.74431   0.74511   0.77593   0.78585
 Alpha virt. eigenvalues --    0.82397   0.84551   0.85743   0.88061   0.90076
 Alpha virt. eigenvalues --    0.92788   0.93507   0.94535   0.95376   0.96232
 Alpha virt. eigenvalues --    0.97025   0.98065   1.00048   1.01524   1.03233
 Alpha virt. eigenvalues --    1.05650   1.07106   1.09162   1.11061   1.12668
 Alpha virt. eigenvalues --    1.13028   1.15609   1.18548   1.20067   1.25699
 Alpha virt. eigenvalues --    1.27656   1.30306   1.37202   1.38383   1.39411
 Alpha virt. eigenvalues --    1.42662   1.44422   1.47055   1.47167   1.51478
 Alpha virt. eigenvalues --    1.52257   1.53085   1.55609   1.56483   1.60472
 Alpha virt. eigenvalues --    1.62922   1.64024   1.70108   1.76911   1.78530
 Alpha virt. eigenvalues --    1.83147   1.88872   1.91351   1.91793   1.94295
 Alpha virt. eigenvalues --    1.99563   2.01072   2.02535   2.03775   2.06695
 Alpha virt. eigenvalues --    2.07330   2.11499   2.13657   2.15845   2.16102
 Alpha virt. eigenvalues --    2.21558   2.24002   2.24557   2.30276   2.32387
 Alpha virt. eigenvalues --    2.34278   2.34795   2.40249   2.42913   2.44125
 Alpha virt. eigenvalues --    2.44237   2.47925   2.54526   2.55780   2.56431
 Alpha virt. eigenvalues --    2.57487   2.65727   2.66483   2.75068   2.78372
 Alpha virt. eigenvalues --    2.83238   2.83456   2.86757   2.88321   2.94758
 Alpha virt. eigenvalues --    2.98541   3.04586   3.20072   3.32757   3.43041
 Alpha virt. eigenvalues --    3.44700   4.15761   4.20644   4.22492   4.24134
 Alpha virt. eigenvalues --    4.26457   4.36037   4.38224   4.44431   4.63808
 Alpha virt. eigenvalues --    4.74041   4.86181
          Condensed to atoms (all electrons):
               1          2          3          4          5          6
     1  C    4.866673   0.367506   0.603332  -0.039643  -0.034462   0.005110
     2  H    0.367506   0.548284  -0.039348  -0.007944   0.004665  -0.000161
     3  C    0.603332  -0.039348   4.917203   0.367842   0.422352  -0.043831
     4  H   -0.039643  -0.007944   0.367842   0.551820  -0.038609  -0.005488
     5  C   -0.034462   0.004665   0.422352  -0.038609   5.163301   0.363712
     6  H    0.005110  -0.000161  -0.043831  -0.005488   0.363712   0.544928
     7  C   -0.016349   0.000005  -0.006398   0.004584   0.500581  -0.036566
     8  C    0.000019   0.000002   0.005515  -0.000159  -0.094684  -0.007354
     9  H    0.000004   0.000000   0.000070  -0.000000  -0.004891   0.003393
    10  C    0.000013  -0.000000  -0.000271   0.000004   0.010442   0.000110
    11  H   -0.000000   0.000000   0.000003  -0.000000  -0.000186  -0.000010
    12  C    0.000180   0.000001  -0.000556  -0.000003   0.019131  -0.000025
    13  C   -0.010846  -0.000047  -0.004594  -0.000004  -0.059806   0.004337
    14  C    0.468996  -0.040117  -0.040278   0.004705  -0.002213  -0.000025
    15  H   -0.040371  -0.006271   0.005313  -0.000159  -0.000064   0.000002
    16  C   -0.036014   0.005221  -0.010622  -0.000028  -0.024558  -0.000183
    17  H    0.004674  -0.000165   0.000011   0.000004  -0.000427   0.000003
    18  C   -0.000002   0.000000   0.000004  -0.000000  -0.000355   0.000003
    19  H   -0.000000   0.000000  -0.000001  -0.000000   0.000006   0.000000
    20  H   -0.000000   0.000000  -0.000001  -0.000000   0.000006   0.000000
    21  H    0.000000  -0.000000  -0.000000   0.000000   0.000005  -0.000000
               7          8          9         10         11         12
     1  C   -0.016349   0.000019   0.000004   0.000013  -0.000000   0.000180
     2  H    0.000005   0.000002   0.000000  -0.000000   0.000000   0.000001
     3  C   -0.006398   0.005515   0.000070  -0.000271   0.000003  -0.000556
     4  H    0.004584  -0.000159  -0.000000   0.000004  -0.000000  -0.000003
     5  C    0.500581  -0.094684  -0.004891   0.010442  -0.000186   0.019131
     6  H   -0.036566  -0.007354   0.003393   0.000110  -0.000010  -0.000025
     7  C    4.791360   0.459490  -0.039270  -0.058164   0.003509  -0.014410
     8  C    0.459490   5.090961   0.370130   0.554883  -0.038781  -0.098018
     9  H   -0.039270   0.370130   0.538602  -0.037665  -0.001783   0.002798
    10  C   -0.058164   0.554883  -0.037665   4.962622   0.361648   0.494865
    11  H    0.003509  -0.038781  -0.001783   0.361648   0.546635  -0.036564
    12  C   -0.014410  -0.098018   0.002798   0.494865  -0.036564   4.945179
    13  C    0.388611  -0.062824   0.005753  -0.033464   0.006774   0.543563
    14  C   -0.006921  -0.000534  -0.000004  -0.000268   0.000002   0.007262
    15  H    0.000052   0.000002  -0.000000   0.000003  -0.000000  -0.000181
    16  C   -0.058540   0.012511  -0.000028   0.007870  -0.000073  -0.101800
    17  H    0.004064   0.000005   0.000002   0.000076  -0.000006  -0.014514
    18  C    0.006819   0.008767  -0.000125  -0.064837  -0.004025   0.340381
    19  H   -0.000134  -0.000086   0.000003   0.001594   0.000004  -0.028826
    20  H   -0.000134  -0.000087   0.000003   0.001601   0.000004  -0.028806
    21  H    0.000058  -0.000159  -0.000007  -0.003011   0.003542  -0.027609
              13         14         15         16         17         18
     1  C   -0.010846   0.468996  -0.040371  -0.036014   0.004674  -0.000002
     2  H   -0.000047  -0.040117  -0.006271   0.005221  -0.000165   0.000000
     3  C   -0.004594  -0.040278   0.005313  -0.010622   0.000011   0.000004
     4  H   -0.000004   0.004705  -0.000159  -0.000028   0.000004  -0.000000
     5  C   -0.059806  -0.002213  -0.000064  -0.024558  -0.000427  -0.000355
     6  H    0.004337  -0.000025   0.000002  -0.000183   0.000003   0.000003
     7  C    0.388611  -0.006921   0.000052  -0.058540   0.004064   0.006819
     8  C   -0.062824  -0.000534   0.000002   0.012511   0.000005   0.008767
     9  H    0.005753  -0.000004  -0.000000  -0.000028   0.000002  -0.000125
    10  C   -0.033464  -0.000268   0.000003   0.007870   0.000076  -0.064837
    11  H    0.006774   0.000002  -0.000000  -0.000073  -0.000006  -0.004025
    12  C    0.543563   0.007262  -0.000181  -0.101800  -0.014514   0.340381
    13  C    4.825622  -0.005920   0.003796   0.429864  -0.036302  -0.067435
    14  C   -0.005920   4.919244   0.367628   0.560356  -0.044337   0.000209
    15  H    0.003796   0.367628   0.554925  -0.037559  -0.006384  -0.000003
    16  C    0.429864   0.560356  -0.037559   5.054621   0.367654  -0.010242
    17  H   -0.036302  -0.044337  -0.006384   0.367654   0.546252   0.006138
    18  C   -0.067435   0.000209  -0.000003  -0.010242   0.006138   5.217831
    19  H   -0.003663   0.000056   0.000000   0.001478   0.001077   0.374786
    20  H   -0.003664   0.000056   0.000000   0.001482   0.001081   0.374740
    21  H    0.002858  -0.000000  -0.000000   0.000126  -0.000057   0.379504
              19         20         21
     1  C   -0.000000  -0.000000   0.000000
     2  H    0.000000   0.000000  -0.000000
     3  C   -0.000001  -0.000001  -0.000000
     4  H   -0.000000  -0.000000   0.000000
     5  C    0.000006   0.000006   0.000005
     6  H    0.000000   0.000000  -0.000000
     7  C   -0.000134  -0.000134   0.000058
     8  C   -0.000086  -0.000087  -0.000159
     9  H    0.000003   0.000003  -0.000007
    10  C    0.001594   0.001601  -0.003011
    11  H    0.000004   0.000004   0.003542
    12  C   -0.028826  -0.028806  -0.027609
    13  C   -0.003663  -0.003664   0.002858
    14  C    0.000056   0.000056  -0.000000
    15  H    0.000000   0.000000  -0.000000
    16  C    0.001478   0.001482   0.000126
    17  H    0.001077   0.001081  -0.000057
    18  C    0.374786   0.374740   0.379504
    19  H    0.529322  -0.031207  -0.025247
    20  H   -0.031207   0.529359  -0.025243
    21  H   -0.025247  -0.025243   0.518460
 Mulliken charges:
               1
     1  C   -0.138821
     2  H    0.168369
     3  C   -0.175747
     4  H    0.163078
     5  C   -0.223946
     6  H    0.172044
     7  C    0.077751
     8  C   -0.199599
     9  H    0.163015
    10  C   -0.198051
    11  H    0.159306
    12  C   -0.002048
    13  C    0.077392
    14  C   -0.187898
    15  H    0.159271
    16  C   -0.161535
    17  H    0.171149
    18  C   -0.562159
    19  H    0.180839
    20  H    0.180810
    21  H    0.176782
 Sum of Mulliken charges =  -0.00000
 Mulliken charges with hydrogens summed into heavy atoms:
               1
     1  C    0.029548
     3  C   -0.012669
     5  C   -0.051902
     7  C    0.077751
     8  C   -0.036584
    10  C   -0.038745
    12  C   -0.002048
    13  C    0.077392
    14  C   -0.028627
    16  C    0.009614
    18  C   -0.023728
 Electronic spatial extent (au):  <R**2>=           1654.6584
 Charge=             -0.0000 electrons
 Dipole moment (field-independent basis, Debye):
    X=             -0.7349    Y=             -0.2551    Z=              0.0001  Tot=              0.7779
 Quadrupole moment (field-independent basis, Debye-Ang):
   XX=            -55.9922   YY=            -56.5766   ZZ=            -68.4837
   XY=             -0.6397   XZ=              0.0021   YZ=              0.0003
 Traceless Quadrupole moment (field-independent basis, Debye-Ang):
   XX=              4.3586   YY=              3.7743   ZZ=             -8.1329
   XY=             -0.6397   XZ=              0.0021   YZ=              0.0003
 Octapole moment (field-independent basis, Debye-Ang**2):
  XXX=             -7.9041  YYY=              2.7750  ZZZ=              0.0018  XYY=             -5.3129
  XXY=              1.2609  XXZ=             -0.0044  XZZ=              2.5958  YZZ=             -2.5014
  YYZ=             -0.0040  XYZ=             -0.0022
 Hexadecapole moment (field-independent basis, Debye-Ang**3):
 XXXX=          -1310.2761 YYYY=           -695.0121 ZZZZ=            -77.2091 XXXY=             17.0212
 XXXZ=              0.0311 YYYX=              3.0630 YYYZ=              0.0021 ZZZX=              0.0051
 ZZZY=             -0.0020 XXYY=           -341.6093 XXZZ=           -271.7842 YYZZ=           -148.6566
 XXYZ=              0.0067 YYXZ=              0.0039 ZZXY=             -6.7586
 N-N= 5.447016487003D+02 E-N=-2.073478585346D+03  KE= 4.212930419140D+02
 No NMR shielding tensors so no spin-rotation constants.
 Leave Link  601 at Fri May 28 11:30:32 2021, MaxMem=  1342177280 cpu:               0.4 elap:               0.1
 (Enter /home/wangzhe/g16/l701.exe)
 ... and contract with generalized density number  0.
 Compute integral first derivatives.
 R6Disp: Adding Grimme-D2 dispersion energy 1st derivatives to the gradient.
 Leave Link  701 at Fri May 28 11:30:32 2021, MaxMem=  1342177280 cpu:               0.4 elap:               0.1
 (Enter /home/wangzhe/g16/l702.exe)
 L702 exits ... SP integral derivatives will be done elsewhere.
 Leave Link  702 at Fri May 28 11:30:32 2021, MaxMem=  1342177280 cpu:               0.0 elap:               0.0
 (Enter /home/wangzhe/g16/l703.exe)
 Integral derivatives from FoFJK, PRISM(SPDF).
 Compute integral first derivatives, UseDBF=F ICtDFT=           0.
 Calling FoFJK, ICntrl=      2127 FMM=F ISym2X=0 I1Cent= 0 IOpClX= 0 NMat=1 NMatS=1 NMatT=0.
 FoFJK:  IHMeth= 1 ICntrl=    2127 DoSepK=T KAlg= 0 I1Cent=           0 FoldK=F
 IRaf=         1 NMat=       1 IRICut=       1 DoRegI=T DoRafI=F ISym2E= 0 IDoP0=0 IntGTp=1.
 FoFCou: FMM=F IPFlag=           0 FMFlag=      100000 FMFlg1=         800
         NFxFlg=           0 DoJE=F BraDBF=F KetDBF=F FulRan=T
         wScrn=  0.000000 ICntrl=      2527 IOpCl=  0 I1Cent=           0 NGrid=           0
         NMat0=    1 NMatS0=      1 NMatT0=    0 NMatD0=    1 NMtDS0=    0 NMtDT0=    0
 Symmetry not used in FoFCou.
 Leave Link  703 at Fri May 28 11:30:36 2021, MaxMem=  1342177280 cpu:              33.3 elap:               4.2
 (Enter /home/wangzhe/g16/l716.exe)
 Dipole        =-2.89134229D-01-1.00383677D-01 3.55954420D-05
 ***** Axes restored to original set *****
 -------------------------------------------------------------------
 Center     Atomic                   Forces (Hartrees/Bohr)
 Number     Number              X              Y              Z
 -------------------------------------------------------------------
      1        6           0.011106591   -0.004025732    0.028437583
      2        1          -0.000710630   -0.001048549   -0.002095079
      3        6          -0.011008590   -0.005891405   -0.029463182
      4        1           0.000775450   -0.000364343    0.001985923
      5        6          -0.001348692    0.032035861    0.001259400
      6        1          -0.000093882   -0.002472081   -0.000597194
      7        6          -0.007083620   -0.005160791   -0.018768402
      8        6          -0.001428526    0.023368438   -0.000544721
      9        1          -0.001572029    0.003200653   -0.003600807
     10        6           0.008694992   -0.009473854    0.021054593
     11        1           0.000055157   -0.004938984   -0.000507599
     12        6           0.007773593   -0.052170359    0.012306725
     13        6           0.006354280    0.005515659    0.017201110
     14        6          -0.000570322    0.030308886    0.002549460
     15        1          -0.000356567   -0.001228346   -0.001082713
     16        6          -0.005899815   -0.017649024   -0.017652289
     17        1          -0.000359522   -0.000308511   -0.000920123
     18        6          -0.013030060    0.026725435   -0.029542656
     19        1           0.017019548    0.000400226    0.006625860
     20        1          -0.007995469   -0.000978891    0.016400831
     21        1          -0.000321889   -0.015844288   -0.003046723
 -------------------------------------------------------------------
 Cartesian Forces:  Max     0.052170359 RMS     0.013931765
 Leave Link  716 at Fri May 28 11:30:36 2021, MaxMem=  1342177280 cpu:               0.1 elap:               0.0
 (Enter /home/wangzhe/g16/l103.exe)

 GradGradGradGradGradGradGradGradGradGradGradGradGradGradGradGradGradGrad
 Berny optimization.
 FormGI is forming the generalized inverse of G from B-inverse, IUseBI=4.
 Internal  Forces:  Max     0.031315176 RMS     0.007739315
 Search for a local minimum.
 Step number   1 out of a maximum of  118
 All quantities printed in internal units (Hartrees-Bohrs-Radians)
 RMS Force = .77393D-02 SwitMx=.10000D-02 MixMth= 1
 Mixed Optimization -- RFO/linear search
 Second derivative matrix not updated -- first step.
 ITU=  0
     Eigenvalues ---    0.00237   0.01256   0.01584   0.01663   0.01850
     Eigenvalues ---    0.01914   0.01983   0.02092   0.02131   0.02197
     Eigenvalues ---    0.02207   0.02228   0.02282   0.02393   0.02505
     Eigenvalues ---    0.02672   0.07243   0.07243   0.16000   0.16000
     Eigenvalues ---    0.16000   0.16000   0.16000   0.16000   0.16000
     Eigenvalues ---    0.16000   0.16000   0.16000   0.22000   0.22000
     Eigenvalues ---    0.22673   0.23002   0.24611   0.24844   0.25000
     Eigenvalues ---    0.28519   0.33658   0.34700   0.34770   0.34773
     Eigenvalues ---    0.34970   0.35011   0.36083   0.36215   0.36368
     Eigenvalues ---    0.37230   0.37230   0.37230   0.37779   0.37918
     Eigenvalues ---    0.38322   0.39544   0.51261   0.54783   0.55545
     Eigenvalues ---    0.55727   0.57252
 RFO step:  Lambda=-1.53155430D-02 EMin= 2.36824177D-03
 Linear search not attempted -- first point.
 Iteration  1 RMS(Cart)=  0.03335649 RMS(Int)=  0.00026654
 Iteration  2 RMS(Cart)=  0.00041319 RMS(Int)=  0.00009042
 Iteration  3 RMS(Cart)=  0.00000014 RMS(Int)=  0.00009042
 ITry= 1 IFail=0 DXMaxC= 1.19D-01 DCOld= 1.00D+10 DXMaxT= 3.00D-01 DXLimC= 3.00D+00 Rises=F
 Variable       Old X    -DE/DX   Delta X   Delta X   Delta X     New X
                                 (Linear)    (Quad)   (Total)
    R1        2.06165  -0.00176   0.00000  -0.00485  -0.00485   2.05680
    R2        2.53408   0.02248   0.00000   0.03868   0.03861   2.57269
    R3        2.73174  -0.00777   0.00000  -0.01936  -0.01935   2.71239
    R4        2.06050  -0.00148   0.00000  -0.00407  -0.00407   2.05643
    R5        2.73208  -0.00877   0.00000  -0.02114  -0.02123   2.71085
    R6        2.05723   0.00019   0.00000   0.00052   0.00052   2.05774
    R7        2.53009   0.02439   0.00000   0.04159   0.04155   2.57164
    R8        2.74481  -0.00848   0.00000  -0.02358  -0.02360   2.72122
    R9        2.75739   0.01909   0.00000   0.04886   0.04875   2.80614
   R10        2.03510   0.00396   0.00000   0.01044   0.01044   2.04554
   R11        2.53408   0.03132   0.00000   0.05295   0.05308   2.58716
   R12        2.03746   0.00486   0.00000   0.01288   0.01288   2.05034
   R13        2.73979  -0.00756   0.00000  -0.01744  -0.01735   2.72245
   R14        2.54818   0.03022   0.00000   0.05442   0.05435   2.60253
   R15        2.91018  -0.01465   0.00000  -0.04876  -0.04876   2.86142
   R16        2.71638  -0.00788   0.00000  -0.01954  -0.01945   2.69693
   R17        2.06046  -0.00152   0.00000  -0.00418  -0.00418   2.05628
   R18        2.53355   0.02435   0.00000   0.04120   0.04128   2.57482
   R19        2.05656  -0.00066   0.00000  -0.00182  -0.00182   2.05474
   R20        2.02201   0.01782   0.00000   0.04597   0.04597   2.06798
   R21        2.02201   0.01782   0.00000   0.04598   0.04598   2.06798
   R22        2.02201   0.01592   0.00000   0.04108   0.04108   2.06308
    A1        2.03878  -0.00207   0.00000  -0.01116  -0.01112   2.02766
    A2        1.97943   0.00144   0.00000   0.00884   0.00888   1.98831
    A3        2.26498   0.00063   0.00000   0.00233   0.00224   2.26722
    A4        2.04078  -0.00002   0.00000  -0.00293  -0.00283   2.03795
    A5        2.26062  -0.00323   0.00000  -0.01276  -0.01296   2.24765
    A6        1.98179   0.00325   0.00000   0.01569   0.01580   1.99758
    A7        1.98935   0.00181   0.00000   0.01101   0.01110   2.00045
    A8        2.22872   0.00159   0.00000   0.00773   0.00755   2.23627
    A9        2.06512  -0.00340   0.00000  -0.01874  -0.01865   2.04647
   A10        2.16761   0.00398   0.00000   0.01749   0.01758   2.18519
   A11        2.22719   0.00525   0.00000   0.02173   0.02175   2.24894
   A12        1.88839  -0.00923   0.00000  -0.03922  -0.03934   1.84905
   A13        2.20096  -0.00677   0.00000  -0.03051  -0.03057   2.17039
   A14        1.86315   0.00710   0.00000   0.02421   0.02433   1.88748
   A15        2.21907  -0.00032   0.00000   0.00629   0.00623   2.22531
   A16        2.20683  -0.00101   0.00000  -0.00256  -0.00266   2.20416
   A17        1.90607   0.00406   0.00000   0.01680   0.01701   1.92308
   A18        2.17029  -0.00305   0.00000  -0.01424  -0.01435   2.15594
   A19        1.92480  -0.01221   0.00000  -0.04256  -0.04253   1.88227
   A20        2.14955   0.00653   0.00000   0.02287   0.02285   2.17240
   A21        2.20884   0.00569   0.00000   0.01969   0.01968   2.22852
   A22        1.84237   0.01028   0.00000   0.04077   0.04053   1.88289
   A23        2.27162  -0.01370   0.00000  -0.05412  -0.05391   2.21771
   A24        2.16919   0.00342   0.00000   0.01335   0.01339   2.18258
   A25        1.98841   0.00060   0.00000   0.00470   0.00466   1.99307
   A26        2.25009   0.00026   0.00000  -0.00105  -0.00097   2.24911
   A27        2.04469  -0.00086   0.00000  -0.00365  -0.00369   2.04100
   A28        2.20475   0.00921   0.00000   0.03615   0.03631   2.24106
   A29        2.02406  -0.00542   0.00000  -0.02273  -0.02281   2.00125
   A30        2.05437  -0.00379   0.00000  -0.01342  -0.01350   2.04087
   A31        1.91063   0.00445   0.00000   0.02595   0.02567   1.93630
   A32        1.91063   0.00446   0.00000   0.02601   0.02574   1.93637
   A33        1.91063   0.00190   0.00000   0.00966   0.00953   1.92017
   A34        1.91063  -0.00394   0.00000  -0.02010  -0.02050   1.89013
   A35        1.91063  -0.00343   0.00000  -0.02075  -0.02087   1.88976
   A36        1.91063  -0.00344   0.00000  -0.02077  -0.02089   1.88974
    D1        0.00144  -0.00004   0.00000  -0.00093  -0.00093   0.00051
    D2       -3.14158  -0.00001   0.00000  -0.00021  -0.00021   3.14140
    D3        3.14084   0.00001   0.00000   0.00041   0.00041   3.14125
    D4       -0.00218   0.00004   0.00000   0.00113   0.00113  -0.00105
    D5       -0.00098   0.00002   0.00000   0.00071   0.00071  -0.00027
    D6        3.14120   0.00001   0.00000   0.00039   0.00040  -3.14159
    D7       -3.14043  -0.00002   0.00000  -0.00058  -0.00058  -3.14102
    D8        0.00174  -0.00003   0.00000  -0.00090  -0.00090   0.00084
    D9       -3.14078  -0.00001   0.00000  -0.00032  -0.00031  -3.14109
   D10        0.00146  -0.00003   0.00000  -0.00076  -0.00076   0.00071
   D11       -0.00058   0.00001   0.00000   0.00038   0.00038  -0.00019
   D12       -3.14151  -0.00000   0.00000  -0.00007  -0.00006  -3.14158
   D13        3.14062   0.00002   0.00000   0.00065   0.00065   3.14128
   D14       -0.00047   0.00001   0.00000   0.00023   0.00023  -0.00024
   D15       -0.00029   0.00000   0.00000   0.00018   0.00018  -0.00010
   D16       -3.14138  -0.00001   0.00000  -0.00025  -0.00024   3.14157
   D17        0.00034  -0.00001   0.00000  -0.00021  -0.00021   0.00013
   D18       -3.14152   0.00001   0.00000   0.00020   0.00020  -3.14132
   D19        3.14151   0.00001   0.00000   0.00016   0.00014  -3.14153
   D20       -0.00034   0.00002   0.00000   0.00057   0.00055   0.00021
   D21        3.14115   0.00001   0.00000   0.00021   0.00021   3.14135
   D22        0.00014  -0.00000   0.00000  -0.00007  -0.00007   0.00007
   D23       -0.00001  -0.00001   0.00000  -0.00017  -0.00016  -0.00017
   D24       -3.14102  -0.00002   0.00000  -0.00045  -0.00044  -3.14146
   D25       -3.14112  -0.00001   0.00000  -0.00043  -0.00045  -3.14157
   D26        0.00054  -0.00002   0.00000  -0.00070  -0.00072  -0.00018
   D27        0.00021  -0.00000   0.00000  -0.00002  -0.00003   0.00018
   D28       -3.14131  -0.00001   0.00000  -0.00029  -0.00030   3.14157
   D29       -0.00058   0.00002   0.00000   0.00066   0.00065   0.00007
   D30       -3.14131   0.00001   0.00000   0.00016   0.00016  -3.14115
   D31        3.14108   0.00002   0.00000   0.00040   0.00038   3.14147
   D32        0.00036  -0.00000   0.00000  -0.00010  -0.00011   0.00025
   D33        0.00034  -0.00001   0.00000  -0.00027  -0.00027   0.00007
   D34        3.14139  -0.00000   0.00000  -0.00004  -0.00003   3.14136
   D35        3.14103   0.00001   0.00000   0.00025   0.00024   3.14127
   D36       -0.00111   0.00002   0.00000   0.00049   0.00048  -0.00062
   D37        2.09382  -0.00031   0.00000  -0.00334  -0.00345   2.09036
   D38       -2.09497   0.00032   0.00000   0.00385   0.00397  -2.09101
   D39       -0.00058   0.00001   0.00000   0.00026   0.00026  -0.00032
   D40       -1.04676  -0.00032   0.00000  -0.00390  -0.00401  -1.05078
   D41        1.04763   0.00031   0.00000   0.00330   0.00341   1.05104
   D42       -3.14116  -0.00001   0.00000  -0.00030  -0.00030  -3.14146
   D43       -0.00004  -0.00000   0.00000   0.00003   0.00003  -0.00002
   D44        3.14153  -0.00000   0.00000  -0.00003  -0.00003   3.14149
   D45       -3.14095  -0.00001   0.00000  -0.00031  -0.00030  -3.14125
   D46        0.00062  -0.00002   0.00000  -0.00037  -0.00036   0.00025
   D47       -0.00060   0.00001   0.00000   0.00030   0.00030  -0.00030
   D48        3.14102   0.00001   0.00000   0.00036   0.00037   3.14138
   D49        3.14159  -0.00000   0.00000  -0.00002  -0.00002   3.14157
   D50        0.00002   0.00000   0.00000   0.00004   0.00004   0.00006
         Item               Value     Threshold  Converged?
 Maximum Force            0.031315     0.000450     NO 
 RMS     Force            0.007739     0.000300     NO 
 Maximum Displacement     0.119005     0.001800     NO 
 RMS     Displacement     0.033356     0.001200     NO 
 Predicted change in Energy=-7.977152D-03
 Lowest energy point so far.  Saving SCF results.
 GradGradGradGradGradGradGradGradGradGradGradGradGradGradGradGradGradGrad

 Leave Link  103 at Fri May 28 11:30:36 2021, MaxMem=  1342177280 cpu:               0.1 elap:               0.0
 (Enter /home/wangzhe/g16/l202.exe)
                          Input orientation:                          
 ---------------------------------------------------------------------
 Center     Atomic      Atomic             Coordinates (Angstroms)
 Number     Number       Type             X           Y           Z
 ---------------------------------------------------------------------
      1          6           0        0.552690    3.759115    0.756853
      2          1           0        0.640850    4.778858    1.126985
      3          6           0        0.066829    3.618902   -0.507156
      4          1           0       -0.190355    4.533614   -1.037604
      5          6           0       -0.158388    2.415536   -1.254844
      6          1           0       -0.557465    2.571496   -2.255914
      7          6           0        0.064031    1.130577   -0.865834
      8          6           0       -0.186431   -0.035997   -1.672056
      9          1           0       -0.580969   -0.008931   -2.679682
     10          6           0        0.158939   -1.141230   -0.941633
     11          1           0        0.088583   -2.173832   -1.267201
     12          6           0        0.643848   -0.747502    0.356571
     13          6           0        0.595689    0.627104    0.426031
     14          6           0        0.974185    2.760106    1.697338
     15          1           0        1.322632    3.160598    2.647195
     16          6           0        0.993045    1.405208    1.554497
     17          1           0        1.354836    0.825773    2.400449
     18          6           0        1.113873   -1.712404    1.424667
     19          1           0        2.159699   -1.525936    1.687395
     20          1           0        0.509406   -1.616552    2.331855
     21          1           0        1.029369   -2.739346    1.063920
 ---------------------------------------------------------------------
                    Distance matrix (angstroms):
                    1          2          3          4          5
     1  C    0.000000
     2  H    1.088414   0.000000
     3  C    1.361412   2.084566   0.000000
     4  H    2.090943   2.331629   1.088217   0.000000
     5  C    2.521460   3.449229   1.434520   2.129429   0.000000
     6  H    3.423398   4.213362   2.131890   2.338580   1.088911
     7  C    3.127477   4.196904   2.514044   3.416852   1.360852
     8  C    4.566046   5.630440   3.844401   4.613447   2.486939
     9  H    5.224282   6.237506   4.277930   4.846000   2.843726
    10  C    5.201276   6.289583   4.780806   5.686393   3.584603
    11  H    6.285861   7.374077   5.842423   6.717168   4.596025
    12  C    4.525277   5.579802   4.488258   5.525378   3.639374
    13  C    3.149728   4.210753   3.178269   4.245105   2.567579
    14  C    1.435336   2.124093   2.533895   3.461415   3.180696
    15  H    2.127069   2.322634   3.425933   4.213317   4.239628
    16  C    2.524089   3.418819   3.163658   4.231589   3.199837
    17  H    3.456781   4.214067   4.232576   5.287334   4.263608
    18  C    5.540615   6.515277   5.766374   6.839336   5.083140
    19  H    5.601798   6.509330   5.972061   7.047447   5.437416
    20  H    5.601812   6.509244   5.972088   7.047514   5.437655
    21  H    6.523152   7.528500   6.619825   7.668121   5.775832
                    6          7          8          9         10
     6  H    0.000000
     7  C    2.096384   0.000000
     8  C    2.697698   1.440007   0.000000
     9  H    2.615097   2.237084   1.082452   0.000000
    10  C    4.003111   2.275052   1.369064   2.202357   0.000000
    11  H    4.890098   3.328786   2.193143   2.670243   1.084994
    12  C    4.391352   2.314658   2.304545   3.356262   1.440657
    13  C    3.507600   1.484945   2.335248   3.381496   2.277775
    14  C    4.243787   3.170741   4.529685   5.407807   4.780086
    15  H    5.284154   4.248110   5.581346   6.484229   5.721852
    16  C    4.275926   2.607009   3.725437   4.733453   3.662068
    17  H    5.327866   3.525293   4.438857   5.500163   4.058175
    18  C    5.889978   3.798830   3.753775   4.756048   2.614864
    19  H    6.302508   4.238852   4.360064   5.374376   3.326083
    20  H    6.302823   4.239138   4.360464   5.374836   3.326331
    21  H    6.460989   4.430817   4.033836   4.905396   2.708111
                   11         12         13         14         15
    11  H    0.000000
    12  C    2.231450   0.000000
    13  C    3.312013   1.377201   0.000000
    14  C    5.823790   3.769628   2.511809   0.000000
    15  H    6.730640   4.580497   3.446826   1.088134   0.000000
    16  C    4.646456   2.488197   1.427156   1.362538   2.093803
    17  H    4.904353   2.675469   2.124641   2.093061   2.348048
    18  C    2.917240   1.514196   2.595974   4.482991   5.028350
    19  H    3.665914   2.162142   2.944952   4.446987   4.856490
    20  H    3.666177   2.162191   2.945097   4.446771   4.856124
    21  H    2.576628   2.148584   3.453688   5.536085   6.115726
                   16         17         18         19         20
    16  C    0.000000
    17  H    1.087323   0.000000
    18  C    3.122652   2.729937   0.000000
    19  H    3.157585   2.585882   1.094326   0.000000
    20  H    3.157408   2.585423   1.094329   1.773981   0.000000
    21  H    4.173645   3.821297   1.091737   1.771646   1.771634
                   21
    21  H    0.000000
 Stoichiometry    C11H10
 Framework group  C1[X(C11H10)]
 Deg. of freedom    57
 Full point group                 C1      NOp   1
 RotChk:  IX=0 Diff= 2.93D-02
 Largest Abelian subgroup         C1      NOp   1
 Largest concise Abelian subgroup C1      NOp   1
                         Standard orientation:                         
 ---------------------------------------------------------------------
 Center     Atomic      Atomic             Coordinates (Angstroms)
 Number     Number       Type             X           Y           Z
 ---------------------------------------------------------------------
      1          6           0       -2.698782   -0.651168    0.000187
      2          1           0       -3.715338   -1.040090    0.000007
      3          6           0       -2.574445    0.704554   -0.000217
      4          1           0       -3.497245    1.281317   -0.000183
      5          6           0       -1.378785    1.497173    0.000101
      6          1           0       -1.547692    2.572904    0.000143
      7          6           0       -0.086985    1.069189    0.000127
      8          6           0        1.071066    1.925074    0.000085
      9          1           0        1.031160    3.006790    0.000140
     10          6           0        2.187193    1.132233   -0.000230
     11          1           0        3.217178    1.473323   -0.000319
     12          6           0        1.809383   -0.258001   -0.000159
     13          6           0        0.433646   -0.321497    0.000114
     14          6           0       -1.686366   -1.668617   -0.000118
     15          1           0       -2.075386   -2.684835   -0.000223
     16          6           0       -0.331276   -1.526349   -0.000007
     17          1           0        0.259758   -2.439010   -0.000092
     18          6           0        2.789295   -1.412367    0.000111
     19          1           0        2.655417   -2.038865    0.887313
     20          1           0        2.655325   -2.039448   -0.886668
     21          1           0        3.813159   -1.033431   -0.000081
 ---------------------------------------------------------------------
 Rotational constants (GHZ):           2.0741656           0.9978162           0.6765742
 Leave Link  202 at Fri May 28 11:30:36 2021, MaxMem=  1342177280 cpu:               0.0 elap:               0.0
 (Enter /home/wangzhe/g16/l301.exe)
 Standard basis: 6-31G(d) (6D, 7F)
 Ernie: Thresh=  0.10000D-02 Tol=  0.10000D-05 Strict=F.
 There are   185 symmetry adapted cartesian basis functions of A   symmetry.
 There are   185 symmetry adapted basis functions of A   symmetry.
   185 basis functions,   348 primitive gaussians,   185 cartesian basis functions
    38 alpha electrons       38 beta electrons
       nuclear repulsion energy       541.2473510345 Hartrees.
 IExCor= 4639 DFT=T Ex+Corr=wB97XD ExCW=0 ScaHFX=  1.000000
 ScaDFX=  1.000000  1.000000  1.000000  1.000000 ScalE2=  1.000000  1.000000
 IRadAn=      5 IRanWt=     -1 IRanGd=            0 ICorTp=0 IEmpDi=121
 HFx  wShort=  0.000000 wLong=  0.200000 cFull=  0.222036 cShort=  0.000000 cLong=  0.777964
 DFx  wShort=  0.000000 wLong=  0.200000 cFull=  0.000000 cShort=  0.000000 cLong=  1.000000
 NAtoms=   21 NActive=   21 NUniq=   21 SFac= 1.00D+00 NAtFMM=   60 NAOKFM=F Big=F
 Integral buffers will be    131072 words long.
 Raffenetti 2 integral format.
 Two-electron integral symmetry is turned on.
 R6Disp:  Grimme-D2 Dispersion energy=       -0.0122261780 Hartrees.
 Nuclear repulsion after empirical dispersion term =      541.2351248565 Hartrees.
 Leave Link  301 at Fri May 28 11:30:36 2021, MaxMem=  1342177280 cpu:               0.1 elap:               0.0
 (Enter /home/wangzhe/g16/l302.exe)
 NPDir=0 NMtPBC=     1 NCelOv=     1 NCel=       1 NClECP=     1 NCelD=      1
         NCelK=      1 NCelE2=     1 NClLst=     1 CellRange=     0.0.
 One-electron integrals computed using PRISM.
 One-electron integral symmetry used in STVInt
 NBasis=   185 RedAO= T EigKep=  6.37D-04  NBF=   185
 NBsUse=   185 1.00D-06 EigRej= -1.00D+00 NBFU=   185
 Precomputing XC quadrature grid using
 IXCGrd= 4 IRadAn=           5 IRanWt=          -1 IRanGd=           0 AccXCQ= 0.00D+00.
 Generated NRdTot=       0 NPtTot=           0 NUsed=           0 NTot=          32
 NSgBfM=   185   185   185   185   185 MxSgAt=    21 MxSgA2=    21.
 Leave Link  302 at Fri May 28 11:30:36 2021, MaxMem=  1342177280 cpu:               0.8 elap:               0.1
 (Enter /home/wangzhe/g16/l303.exe)
 DipDrv:  MaxL=1.
 Leave Link  303 at Fri May 28 11:30:36 2021, MaxMem=  1342177280 cpu:               0.1 elap:               0.0
 (Enter /home/wangzhe/g16/l401.exe)
[...]
 00665,-0.00651084,0.05673943,-0.25588730,0.11777788,-0.00240814,0.0083
 7589,-0.00501495,-0.00507601,0.79933175,-0.02251819,0.02007484,-0.0553
 8470,-0.00038179,0.00039660,-0.00096139,0.01823542,0.03519830,0.051943
 61,0.00042293,0.00018131,0.00058915,-0.00299342,-0.07573659,-0.0133169
 1,-0.00025192,-0.00074245,-0.00028600,0.00568817,0.07834010,0.03197529
 ,-0.04914923,0.04000458,-0.17959846,-0.00379361,0.02257335,-0.00642952
 ,0.15384934,0.08009011,0.54297884,0.00011248,0.00015323,-0.00044918,0.
 00021023,0.00000843,-0.00007724,-0.00110072,0.00023830,0.00070915,-0.0
 0003992,0.00003509,0.00004005,0.00065569,-0.00012681,0.00015814,0.0003
 6821,0.00000141,-0.00014034,0.00522947,0.00206187,-0.00325021,0.004109
 21,0.00656216,0.00397933,-0.00224088,-0.00054479,0.00096498,-0.0441635
 4,-0.01874202,-0.01519818,0.03086685,0.00011003,0.00003579,0.00024547,
 0.00000555,-0.00002966,-0.00002381,-0.00002105,-0.00049101,0.00006867,
 -0.00001598,-0.00011603,-0.00004983,-0.00033327,-0.00009953,-0.0009503
 2,0.00003790,0.00000365,0.00003824,0.00142035,-0.00341058,0.00223087,-
 0.00394726,-0.01182291,-0.01219293,0.00001410,0.00049257,0.00047790,-0
 .01895929,-0.31648496,-0.08758705,0.02092699,0.33351093,-0.00045342,0.
 00035329,-0.00081640,-0.00007769,-0.00001648,0.00003953,0.00067102,0.0
 0073193,0.00045848,0.00003287,0.00008108,0.00004203,0.00012908,-0.0004
 1674,0.00085944,-0.00013522,-0.00005527,0.00006869,-0.00334081,0.00386
 982,-0.00140692,0.00249970,0.01475304,0.01140017,0.00104378,-0.0009546
 1,-0.00010706,-0.01522736,-0.08704494,-0.09052287,0.01709886,0.0969862
 7,0.08280470,0.00358060,-0.00417737,0.00955912,-0.00053013,-0.00010814
 ,0.00044678,-0.00200312,-0.00565931,-0.00955659,0.00009259,-0.00006625
 ,-0.00012454,-0.00143739,0.01118260,-0.00027362,-0.00121874,0.00067709
 ,0.00025407,0.00665795,-0.00090498,-0.01184078,0.00212417,0.02428771,-
 0.02102882,0.00309961,0.00136790,-0.00160083,-0.09363651,-0.02894329,-
 0.08213725,0.00380495,0.00127135,-0.00011395,0.23528457,0.02256752,-0.
 02159514,0.05486669,0.00034573,-0.00039626,0.00092879,-0.01723644,-0.0
 3164302,-0.04884225,-0.00023951,-0.00047185,-0.00069854,0.00097776,0.0
 6341147,0.01153191,0.00000066,0.00031628,0.00022825,0.00899052,-0.0926
 4259,0.00840291,0.00456115,0.06841793,0.01967749,0.00106165,-0.0041536
 3,0.00159818,0.00358130,-0.15009066,-0.00302318,-0.00934372,-0.0023355
 7,-0.02482678,-0.05089911,0.62569266,0.01332384,-0.01369270,0.03185170
 ,0.00051102,-0.00023295,0.00056546,-0.01118508,-0.01916242,-0.02995786
 ,-0.00014907,-0.00025550,-0.00028005,-0.00171136,0.03769220,0.00020464
 ,0.00015947,0.00196022,-0.00059801,-0.01045687,-0.01693979,-0.01793823
 ,-0.02381672,0.07024728,-0.03947346,-0.00164360,0.00238762,-0.00007948
 ,-0.07755628,-0.08640407,-0.27401352,-0.00160794,0.00237555,0.00012635
 ,0.18671731,-0.06467852,0.62895443,-0.00596963,0.00311811,-0.00778995,
 0.00008876,0.00007640,-0.00034683,-0.00228316,0.00484573,0.00715234,0.
 00033167,-0.00004983,0.00003515,-0.00064010,-0.00418548,-0.00143995,0.
 00707209,0.00010560,-0.00207722,-0.08742799,0.01582344,-0.04274518,0.0
 0442958,-0.01319249,-0.02152499,0.00327160,-0.00040109,-0.00146871,0.0
 0095678,-0.00769733,-0.01535663,0.00484763,0.00003712,-0.00432019,-0.0
 7634331,0.02186027,-0.00385840,0.21922925,-0.02376225,0.02706800,-0.05
 671717,-0.00041070,0.00075547,-0.00097686,0.01710056,0.02824207,0.0484
 9325,0.00018485,0.00087839,0.00055244,0.00996319,-0.05912297,0.0172614
 8,0.00097038,-0.00466049,0.00072179,0.02316766,-0.05395259,0.06164162,
 -0.00425895,-0.06688565,-0.02204318,-0.00025864,-0.00545330,-0.0019628
 9,-0.04047597,0.00042361,-0.10461558,-0.00044370,-0.00032285,-0.002095
 98,0.02488282,-0.27395126,0.03543490,0.01783900,0.63801271,-0.01157599
 ,0.01219779,-0.03071959,-0.00041579,0.00026974,-0.00079816,0.00887998,
 0.01707656,0.02036101,0.00006835,-0.00004865,0.00048297,0.00055247,-0.
 01901519,-0.00156467,-0.00195388,-0.00149675,0.00266709,-0.04171063,0.
 04281118,-0.17080132,-0.02025955,-0.04494969,-0.04616947,-0.00144769,-
 0.00233319,-0.00021688,-0.01996997,-0.02056505,-0.04756645,-0.00438826
 ,-0.00086794,-0.00482699,-0.00343814,0.02769635,-0.07855550,0.18331613
 ,0.11477566,0.63480763,-0.08597552,0.06117497,-0.05828559,0.00556723,-
 0.00229932,0.00011976,-0.00405007,-0.00184751,-0.02588198,0.00541938,-
 0.00013413,-0.00372644,-0.00193865,0.01672866,0.00368096,0.00027976,0.
 00015526,0.00015205,-0.00534902,-0.01084127,-0.00249203,0.00108053,0.0
 1205317,0.00093160,-0.00001334,0.00017047,0.00005358,0.00465809,-0.003
 87409,0.01093111,-0.00123876,-0.00018027,0.00049190,0.00457232,-0.0104
 9264,-0.01025843,0.00826531,-0.00052705,0.00814323,0.20229141,0.021473
 60,-0.22361634,0.03200836,0.00973120,-0.01992304,0.02139066,0.03100836
 ,0.06073364,0.08720766,-0.00054996,0.00187394,-0.00211451,-0.00136183,
 -0.08502309,-0.01511789,-0.00001943,-0.00089135,-0.00020945,0.00219035
 ,0.05876439,0.01458971,-0.00044192,-0.06463374,-0.01043009,0.00011900,
 -0.00047540,0.00024633,-0.02504728,0.02394424,-0.06085290,-0.00047384,
 0.00014405,-0.00098576,0.01110387,0.06868258,0.03701025,-0.01435236,-0
 .09261049,-0.05055205,-0.02761679,0.68991824,-0.06387553,0.13379254,-0
 .20480749,0.00181431,-0.00945848,0.00871130,-0.02125572,0.00297849,-0.
 04812843,-0.00378516,-0.00104686,-0.00298534,0.00113372,0.03125895,0.0
 0485095,0.00012696,0.00024046,0.00058945,-0.00065726,-0.01881476,-0.00
 930589,-0.00082850,0.02160269,0.00229855,0.00004709,0.00037355,0.00014
 691,0.00795095,-0.00658618,0.01963076,0.00045057,-0.00023923,-0.000319
 60,-0.00721668,-0.01835464,-0.01308630,0.00619960,-0.01510667,0.018817
 36,0.19256564,0.00859938,0.62051988,-0.00067539,-0.00372659,-0.0091193
 9,-0.00387228,-0.00008548,0.00174540,0.00603245,0.00187760,-0.00264041
 ,0.00004912,-0.00001823,-0.00051271,-0.00003922,0.00027440,0.00019005,
 -0.00058269,-0.00006624,0.00019185,0.00030960,-0.00010486,0.00001094,0
 .00013346,0.00014133,-0.00000236,-0.00014062,-0.00000676,0.00004724,-0
 .00048142,-0.00014291,0.00037500,-0.00002076,-0.00000654,0.00000630,-0
 .00007578,-0.00016933,-0.00014849,0.00643299,0.00065092,-0.00201334,-0
 .06912103,-0.03010089,-0.08869749,0.06266005,0.00862402,0.00850555,0.0
 2292871,0.00007777,0.00076160,0.00094748,0.00145491,-0.00208947,0.0024
 2778,0.00036673,-0.00002116,0.00090249,-0.00000380,-0.00162161,-0.0002
 2437,-0.00003511,0.00015577,0.00002489,0.00016428,0.00094074,0.0005117
 6,-0.00003569,-0.00087262,-0.00023444,-0.00002114,-0.00002897,-0.00003
 579,-0.00035931,-0.00020942,-0.00086127,-0.00005678,-0.00004527,-0.000
 14840,-0.00032555,0.00110444,-0.00067445,0.00130141,-0.00574964,0.0015
 0341,-0.03006682,-0.09154299,-0.08486565,0.03050957,0.10168224,-0.0073
 8276,-0.00873110,-0.01747785,0.00176860,0.00053006,0.00005028,-0.00269
 962,0.00351150,0.00074002,-0.00045848,-0.00008456,-0.00093936,0.000150
 90,0.00048754,0.00035729,0.00019624,-0.00005483,-0.00016587,0.00004855
 ,-0.00017761,0.00039908,-0.00002741,0.00021862,0.00010266,0.00004522,0
 .00000103,-0.00004332,0.00034422,-0.00030511,0.00020374,-0.00000066,-0
 .00001981,-0.00002819,-0.00017030,-0.00027363,-0.00050166,-0.00192182,
 -0.00016335,0.00230419,-0.08869184,-0.08495618,-0.27548562,0.09860476,
 0.08887697,0.29114672,0.00890270,0.00470943,0.01446566,0.00611069,0.00
 187825,-0.00333281,-0.00607240,-0.00596219,-0.00943366,-0.00011887,-0.
 00021097,-0.00008861,-0.00135015,0.01138155,0.00274890,0.00023849,0.00
 011922,-0.00003787,-0.00300086,-0.01543766,-0.00865022,-0.00079121,0.0
 1079783,0.00059239,0.00164242,-0.00025526,-0.00096096,0.00826680,-0.00
 255291,0.00882913,0.00052954,0.00008980,0.00032366,0.00318619,-0.01416
 474,-0.00616162,-0.08922577,-0.03129344,-0.08295028,-0.06992578,0.0246
 2095,-0.02248435,0.00259684,-0.01127927,-0.00159200,0.21968937,0.03578
 027,-0.05860002,0.08298425,0.00172556,-0.00093014,0.00323089,-0.023941
 83,-0.03972296,-0.06658831,-0.00049121,-0.00067359,-0.00133968,0.00020
 529,0.07121444,0.01080628,0.00009411,0.00018122,0.00023240,-0.00244929
 ,-0.03504423,-0.01114782,0.00258605,0.06015080,0.01516274,0.00018061,0
 .00169284,0.00041442,0.02603348,-0.03095629,0.06170449,-0.00019724,-0.
 00017956,-0.00059370,-0.02228598,-0.08704170,-0.07005569,-0.03033372,-
 0.12834042,-0.08760511,-0.01432480,-0.30849558,-0.07171123,0.00116248,
 -0.01108733,0.00105517,-0.02137139,0.69790915,0.01883789,0.00332492,0.
 05227992,-0.00335383,0.00362587,-0.00057600,-0.01196345,-0.02048830,-0
 .03627686,-0.00012821,-0.00062217,-0.00051137,0.00117539,0.03945166,0.
 00677100,-0.00004211,0.00029456,0.00019530,-0.00681986,-0.04443903,-0.
 02421126,-0.00056249,0.03620259,0.00322715,-0.00089879,-0.00069785,-0.
 00040232,0.01285379,-0.01156845,0.03599811,0.00028445,0.00014768,0.001
 15260,-0.00731049,-0.04924233,-0.02085580,-0.08281624,-0.09006102,-0.2
 8358519,-0.02796397,0.02811149,-0.12752523,0.00015844,-0.03083974,-0.0
 0133389,0.18630188,0.02297383,0.62665609,0.00620863,0.00031022,-0.0017
 3816,-0.00059140,-0.00000430,0.00017249,0.00023110,-0.00017661,-0.0000
 6793,-0.00056496,-0.00000213,0.00022666,0.00016682,0.00001492,-0.00009
 837,-0.00048052,0.00002776,0.00014368,0.00717149,-0.00111771,-0.002890
 52,-0.00157912,0.00026270,0.00004021,-0.00056719,-0.00017077,0.0001439
 5,0.00045040,0.00006279,-0.00005316,0.00046247,-0.00001240,-0.00018089
 ,-0.00420323,0.00013787,0.00171732,0.00362581,0.00543445,-0.01002975,0
 .00536471,-0.00063716,-0.00193836,-0.00336802,-0.00032840,0.00184604,-
 0.07798595,0.04870794,-0.07788330,0.06550560,-0.00011361,-0.00491037,-
 0.00195484,0.00037617,-0.00114685,0.00089606,-0.00037313,-0.00032509,-
 0.00103729,0.00002648,0.00003039,0.00016419,-0.00004731,0.00058369,-0.
 00006805,-0.00002617,0.00011930,0.00002510,-0.00025505,-0.00248973,-0.
 00216525,-0.00033624,0.00118103,-0.00047268,-0.00007202,-0.00021428,-0
 .00012565,0.00037019,-0.00017434,0.00085744,0.00003397,0.00002441,0.00
 001545,-0.00057057,-0.00088808,-0.00090359,-0.00590529,0.01340700,-0.0
 1435218,0.01172753,-0.01505026,0.02708559,-0.00018661,0.00023427,0.000
 13304,0.04772102,-0.13340011,0.10986296,-0.05230914,0.14471223,-0.0017
 9704,-0.00086817,0.00217580,0.00022606,-0.00007956,-0.00009056,-0.0000
 9626,-0.00053544,-0.00007408,0.00023071,0.00009079,-0.00004936,-0.0001
 0701,0.00009381,-0.00005530,0.00013612,0.00016316,-0.00016316,-0.00277
 020,-0.00437979,0.00052083,-0.00004427,0.00106457,-0.00154407,0.000157
 77,-0.00037897,-0.00028149,-0.00000846,0.00006898,0.00046268,-0.000174
 25,-0.00010325,0.00007122,0.00161675,0.00091281,-0.00059295,-0.0116249
 5,0.01472321,-0.01989063,-0.00019803,-0.00460404,0.00492998,0.00186620
 ,-0.00023041,0.00064456,-0.07802292,0.11238154,-0.22909291,0.09019653,
 -0.11756953,0.24208690,0.00001248,-0.00008004,0.00015362,-0.00001964,-
 0.00001012,0.00000950,-0.00003516,0.00003001,-0.00002448,-0.00009668,-
 0.00001799,0.00003897,0.00148768,-0.00003670,-0.00046004,-0.00048629,-
 0.00009646,0.00025753,0.00296394,-0.00055773,-0.00099984,0.00407924,-0
 .00075096,-0.00271115,0.00105954,0.00034131,-0.00046548,-0.00074330,0.
 00781659,-0.00749627,-0.00265386,-0.00015666,0.00175607,-0.08522417,0.
 02875678,-0.04091734,0.00152028,0.00188592,0.00091179,-0.00002842,0.00
 039829,0.00004391,0.00029846,-0.00000291,-0.00014201,-0.00267655,-0.00
 126677,0.00052897,0.00092570,-0.00012027,-0.00028107,0.54816023,-0.000
 40953,-0.00006606,-0.00105173,0.00000198,0.00000012,0.00000849,0.00019
 081,0.00121771,0.00066379,-0.00000262,-0.00001141,0.00000761,0.0006824
 1,-0.00133225,0.00132678,0.00004929,-0.00043703,0.00014855,-0.00119323
 ,-0.00345776,-0.00401869,-0.00084354,0.00080218,-0.00276692,-0.0001369
 2,0.00083888,-0.00041108,-0.00147263,0.00805198,-0.00300621,-0.0006099
 0,0.00068869,-0.00099401,0.03096190,-0.14945558,0.06780334,0.01044851,
 -0.01775303,0.02410368,0.00044854,-0.00059034,0.00107036,0.00001336,-0
 .00003380,-0.00002029,0.00033499,0.00169537,0.00151224,0.00003242,-0.0
 0050195,-0.00013320,0.01301894,0.56223600,0.00010647,-0.00020717,0.000
 19106,0.00001122,-0.00002242,0.00000162,-0.00000113,0.00025523,0.00000
 911,0.00004114,-0.00003182,-0.00001189,-0.00035850,-0.00052189,0.00067
 303,0.00027795,-0.00022580,0.00008887,-0.00109121,-0.00237989,0.000188
 03,-0.00272438,-0.00252722,-0.00223927,-0.00053283,0.00081499,0.000009
 32,-0.00880087,0.02079120,-0.01701701,0.00169177,0.00016617,0.00101159
 ,-0.04061268,0.06216546,-0.16297469,0.00212176,0.00214710,0.00701418,0
 .00005165,0.00094022,0.00024122,-0.00013994,-0.00006204,-0.00001305,0.
 00075478,-0.00259032,-0.00138360,-0.00025986,-0.00052514,0.00028917,-0
 .00647786,0.03489554,0.53971518,-0.00006275,-0.00003099,-0.00050012,0.
 00001289,-0.00000828,0.00001962,0.00010255,0.00043564,0.00036333,-0.00
 001323,0.00001382,0.00001620,0.00011667,-0.00071617,-0.00003357,-0.000
 02023,-0.00001444,-0.00000567,-0.00055650,0.00063949,-0.00115537,0.000
 11933,0.00066790,-0.00024853,0.00009074,0.00011402,-0.00008327,-0.0004
 1437,0.00098244,0.00118536,-0.00008244,-0.00002809,0.00010819,-0.00557
 253,0.00068228,-0.00475614,0.00104490,-0.00147825,-0.00010628,0.000197
 94,-0.00034925,0.00055502,-0.00004882,0.00000848,0.00003875,-0.0002967
 6,0.00052044,-0.00043099,-0.00021238,0.00031558,0.00053365,-0.28925643
 ,-0.04642173,-0.05890946,0.31307572,0.00017739,0.00017195,-0.00000925,
 0.00000879,0.00001036,-0.00002451,-0.00004116,-0.00027482,-0.00011302,
 0.00000500,-0.00000069,-0.00000894,-0.00024690,0.00057693,0.00015131,0
 .00007451,0.00002508,-0.00003172,0.00006719,-0.00010216,0.00152783,0.0
 0004777,-0.00107276,0.00068798,-0.00021397,-0.00013254,0.00013383,0.00
 040815,-0.00106387,-0.00065817,0.00004793,0.00010602,0.00018127,0.0214
 9384,0.00436106,0.00606536,-0.00035096,0.00035135,-0.00076037,-0.00029
 438,-0.00034249,-0.00037260,-0.00008707,-0.00001856,0.00003004,0.00048
 036,0.00034453,0.00082755,0.00022684,-0.00065050,-0.00048496,-0.043822
 55,-0.05740669,-0.01144192,0.04889362,0.05921375,-0.00008099,0.0000075
 5,-0.00034060,0.00000274,0.00002642,0.00000489,0.00007887,0.00037650,0
 .00025138,-0.00002115,0.00002011,0.00000632,0.00017027,-0.00056526,-0.
 00000072,-0.00006366,-0.00001990,0.00000059,-0.00011549,0.00035310,-0.
 00122295,0.00063245,0.00058162,-0.00102937,0.00013860,0.00023530,-0.00
 020155,-0.00101338,0.00249038,-0.00026235,-0.00038612,-0.00008800,0.00
 028070,-0.02382383,-0.00365993,-0.00949910,0.00047271,-0.00164971,0.00
 073642,0.00010456,-0.00017531,0.00019925,0.00002121,0.00000485,0.00001
 830,-0.00016119,0.00044936,0.00051985,0.00002781,-0.00004347,0.0001075
 5,-0.06024542,-0.01275310,-0.06156531,0.06742689,0.00973411,0.06744603
 ,0.00010993,0.00001882,0.00008347,-0.00000189,0.00002328,-0.00001125,-
 0.00004082,-0.00003911,-0.00007598,-0.00000116,0.00000376,-0.00000826,
 -0.00004059,0.00008135,0.00004624,0.00003141,-0.00000163,-0.00001847,-
 0.00030074,-0.00025327,0.00011590,-0.00063713,-0.00004656,-0.00019954,
 -0.00010266,0.00007991,-0.00002934,-0.00045670,0.00106305,-0.00096675,
 0.00021765,-0.00002583,-0.00007178,0.00823015,-0.00215966,-0.01221903,
 0.00074460,-0.00000303,0.00019676,-0.00014171,0.00016438,-0.00019837,-
 0.00005527,-0.00000739,0.00002548,0.00036152,-0.00009339,0.00047080,-0
 .00027566,-0.00022213,-0.00010434,-0.12911387,0.01406946,0.12123214,-0
 .01765419,0.00444948,0.02739739,0.13762146,-0.00013054,0.00015739,0.00
 014688,-0.00002434,0.00001034,-0.00001362,-0.00002945,-0.00030013,-0.0
 0014493,-0.00001073,-0.00000213,-0.00000389,0.00022766,0.00064771,-0.0
 0003297,-0.00007723,0.00001735,0.00002787,0.00099949,-0.00010096,0.001
 24008,0.00051410,-0.00108438,0.00049213,0.00026104,-0.00010776,-0.0000
 5272,-0.00072203,-0.00112070,-0.00033649,0.00008173,0.00010714,0.00016
 448,-0.01162303,0.00234272,0.01887548,-0.00021024,0.00044060,-0.000806
 43,-0.00002618,-0.00029843,-0.00052625,0.00007949,-0.00001026,-0.00003
 579,0.00020162,0.00029290,0.00100059,-0.00047357,-0.00071990,-0.000248
 37,0.01299184,-0.05144096,-0.02027179,-0.00419038,0.00013463,0.0060301
 6,-0.01690377,0.05250932,-0.00032733,-0.00002175,-0.00049895,0.0000013
 1,0.00001370,0.00001975,0.00014265,0.00056261,0.00042014,0.00002582,0.
 00002687,-0.00000428,-0.00007090,-0.00089388,0.00008614,0.00004140,-0.
 00001806,-0.00004327,-0.00082732,0.00066845,-0.00148104,-0.00108894,0.
 00075008,-0.00026149,-0.00027175,0.00022192,-0.00003301,0.00089933,0.0
 0256274,-0.00016184,0.00044853,-0.00003666,-0.00002061,0.00844765,-0.0
 0047955,-0.02128513,-0.00025336,-0.00227198,0.00094794,0.00023294,-0.0
 0037615,0.00049541,0.00004179,0.00001203,0.00001643,0.00023698,0.00072
 479,-0.00008789,0.00035380,0.00018279,0.00023933,0.12278222,-0.0228600
 1,-0.22767702,-0.00450187,0.00090417,0.00770871,-0.13173476,0.02069563
 ,0.24960976,0.00005767,-0.00006547,0.00008782,-0.00000559,-0.00000617,
 0.00001008,-0.00003587,-0.00006671,-0.00008198,-0.00000162,0.00000155,
 0.00000298,-0.00002179,0.00006970,-0.00017536,-0.00001394,0.00005008,-
 0.00002259,0.00030207,0.00043348,-0.00004576,-0.00021623,0.00014785,0.
 00012065,-0.00003171,-0.00003491,0.00002331,0.00031810,0.00015343,0.00
 077996,0.00012649,-0.00022655,-0.00024010,-0.00038819,0.01118166,0.004
 01741,0.00002873,0.00083224,-0.00180916,0.00008563,0.00014070,0.000049
 67,-0.00003166,0.00001500,0.00001815,-0.00008024,-0.00024061,-0.000437
 88,-0.00028432,-0.00003340,0.00026500,-0.05017318,-0.01916251,-0.00638
 017,-0.00057012,-0.03132389,-0.01056228,0.00150566,0.01906452,0.005421
 82,0.04943012,-0.00016497,0.00021515,-0.00039551,-0.00000171,-0.000028
 42,-0.00000700,0.00012051,0.00019635,0.00033764,0.00000569,-0.00002006
 ,0.00001214,0.00013241,-0.00021443,0.00030203,0.00003327,-0.00012891,0
 .00006759,-0.00007885,-0.00056381,-0.00033121,0.00009985,-0.00054550,0
 .00021556,0.00000539,0.00004501,0.00002617,-0.00087869,0.00180851,-0.0
 0200124,0.00038767,0.00022468,0.00099603,-0.00166551,-0.01966383,-0.00
 685252,0.00122321,-0.00077649,0.00291825,0.00006667,-0.00056753,0.0000
 8054,-0.00000765,-0.00005352,-0.00002171,0.00019281,0.00099071,0.00062
 296,0.00001428,0.00017911,0.00011680,-0.01832053,-0.29304408,-0.081368
 51,-0.00003614,-0.00423060,-0.00135477,-0.00019772,-0.00147448,-0.0003
 6773,0.01907000,0.31765212,0.00007374,-0.00014034,0.00018914,0.0000107
 2,-0.00001845,0.00001501,-0.00005559,-0.00014222,-0.00017009,0.0000035
 6,0.00000153,0.00000665,-0.00016644,0.00014133,-0.00035629,-0.00002491
 ,0.00011048,-0.00005072,-0.00011846,0.00098239,0.00017952,0.00011406,0
 .00033835,0.00008426,0.00002897,-0.00007709,0.00002070,0.00063420,0.00
 064402,0.00173884,-0.00015346,-0.00057800,-0.00026688,0.00220682,0.026
 07050,0.00798916,-0.00175327,0.00191294,-0.00344393,0.00003934,0.00027
 025,0.00021290,0.00001498,0.00003621,0.00000553,-0.00037687,-0.0004883
 0,-0.00095771,0.00027181,-0.00000492,0.00030647,-0.00626162,-0.0835251
 6,-0.07655056,0.00048426,-0.00633798,-0.00315807,-0.00393030,-0.026200
 03,-0.00798909,0.00895844,0.08700449,0.08219518\\0.00003937,-0.0000158
 1,0.00009698,-0.00000258,0.00000332,-0.00000219,-0.00002973,-0.0000432
 3,-0.00008345,0.00000381,0.00000632,0.00001015,0.00002586,0.00001589,0
 .00005057,-0.00000703,-0.00000726,-0.00000613,0.00001106,-0.00003750,-
 0.00004044,0.00002592,0.00001615,0.00004988,0.00000547,-0.00002053,0.0
 0001410,-0.00004227,0.00003937,-0.00002956,0.00000333,0.00002231,0.000
 01781,-0.00002711,0.00019624,-0.00015602,0.00001633,-0.00014548,0.0001
 5027,-0.00003530,0.00007025,-0.00009005,0.00000913,-0.00002253,0.00001
 560,-0.00002246,-0.00007704,-0.00004570,0.00000836,0.00001934,0.000018
 98,0.00005019,-0.00008876,0.00010404,-0.00006761,-0.00000237,-0.000025
 01,0.00003173,0.00000599,-0.00006842,0.00000355,0.00006532,0.00001859\
 \\@


 IN NATURE THERE ARE NEITHER REWARDS OR
 PUNISHMENTS -- THERE ARE CONSEQUENCES.

                            -- ROBERT GREEN INGERSOLL
 Job cpu time:       0 days  0 hours 14 minutes  4.0 seconds.
 Elapsed time:       0 days  0 hours  1 minutes 45.9 seconds.
 File lengths (MBytes):  RWF=     88 Int=      0 D2E=      0 Chk=      4 Scr=      1
 Normal termination of Gaussian 16 at Fri May 28 11:34:08 2021.
