Title Card Required                                                     
Freq      RwB97XD                                                     6-31G(d)            
Number of atoms                            I               21
Info1-9                                    I   N=           9
          30          30        1002           0           0         100
           6          18       -5802
Full Title                                 C   N=           2
Title Card Required     
Route                                      C   N=           3
#p opt freq rwb97xd/6-31g(d)        
Charge                                     I                0
Multiplicity                               I                1
Number of electrons                        I               76
Number of alpha electrons                  I               38
Number of beta electrons                   I               38
Number of basis functions                  I              185
Number of independent functions            I              185
Number of point charges in /Mol/           I                0
Number of translation vectors              I                0
Atomic numbers                             I   N=          21
           6           1           6           1           6           1
           6           6           1           6           1           6
           6           6           1           6           1           6
           1           1           1
Nuclear charges                            R   N=          21
  6.00000000E+00  1.00000000E+00  6.00000000E+00  1.00000000E+00  6.00000000E+00
  1.00000000E+00  6.00000000E+00  6.00000000E+00  1.00000000E+00  6.00000000E+00
  1.00000000E+00  6.00000000E+00  6.00000000E+00  6.00000000E+00  1.00000000E+00
  6.00000000E+00  1.00000000E+00  6.00000000E+00  1.00000000E+00  1.00000000E+00
  1.00000000E+00
Current cartesian coordinates              R   N=          63
 -5.06677690E+00 -1.31512930E+00  4.99632785E-05 -6.99244910E+00 -2.03874983E+00
  8.23589801E-05 -4.86394711E+00  1.31482074E+00  2.22826184E-04 -6.64153287E+00
  2.34491898E+00  3.68984557E-04 -2.68695663E+00  2.79060288E+00  2.20239665E-04
 -2.98567957E+00  4.82796092E+00  2.54346549E-04 -1.72446772E-01  2.03184749E+00
  4.22213211E-05  1.93043656E+00  3.62929213E+00 -1.25033127E-04  1.86425280E+00
  5.67490737E+00 -2.13715319E-04  4.11036198E+00  2.12820386E+00 -3.09268298E-04
  6.03294454E+00  2.84402941E+00 -4.86015337E-04  3.48144611E+00 -4.41561701E-01
  1.46281680E-04  8.25262652E-01 -6.10879418E-01 -2.87094125E-04 -3.18521712E+00
 -3.15366163E+00 -1.76575139E-04 -3.84059011E+00 -5.10090194E+00 -1.87673837E-04
 -5.67447288E-01 -2.82932311E+00 -3.40629172E-04  5.36533667E-01 -4.56760514E+00
 -3.80716643E-04  5.30202344E+00 -2.61355924E+00  4.14174104E-04  5.06674934E+00
 -3.81969164E+00  1.66979195E+00  5.06679283E+00 -3.81998780E+00 -1.66875014E+00
  7.25254493E+00 -1.92879661E+00  3.77987017E-04
Number of symbols in /Mol/                 I                0
Force Field                                I                0
Atom Types                                 C   N=          21
                                                            
                                                            
                                                            
                                                            
            
Int Atom Types                             I   N=          21
           0           0           0           0           0           0
           0           0           0           0           0           0
           0           0           0           0           0           0
           0           0           0
MM charges                                 R   N=          21
  0.00000000E+00  0.00000000E+00  0.00000000E+00  0.00000000E+00  0.00000000E+00
  0.00000000E+00  0.00000000E+00  0.00000000E+00  0.00000000E+00  0.00000000E+00
  0.00000000E+00  0.00000000E+00  0.00000000E+00  0.00000000E+00  0.00000000E+00
  0.00000000E+00  0.00000000E+00  0.00000000E+00  0.00000000E+00  0.00000000E+00
  0.00000000E+00
Integer atomic weights                     I   N=          21
          12           1          12           1          12           1
          12          12           1          12           1          12
          12          12           1          12           1          12
           1           1           1
Real atomic weights                        R   N=          21
  1.20000000E+01  1.00782504E+00  1.20000000E+01  1.00782504E+00  1.20000000E+01
  1.00782504E+00  1.20000000E+01  1.20000000E+01  1.00782504E+00  1.20000000E+01
  1.00782504E+00  1.20000000E+01  1.20000000E+01  1.20000000E+01  1.00782504E+00
  1.20000000E+01  1.00782504E+00  1.20000000E+01  1.00782504E+00  1.00782504E+00
  1.00782504E+00
Atom fragment info                         I   N=          21
           0           0           0           0           0           0
           0           0           0           0           0           0
           0           0           0           0           0           0
           0           0           0
Atom residue num                           I   N=          21
           0           0           0           0           0           0
           0           0           0           0           0           0
           0           0           0           0           0           0
           0           0           0
Nuclear spins                              I   N=          21
           0           1           0           1           0           1
           0           0           1           0           1           0
           0           0           1           0           1           0
           1           1           1
Nuclear ZEff                               R   N=          21
 -3.60000000E+00 -1.00000000E+00 -3.60000000E+00 -1.00000000E+00 -3.60000000E+00
 -1.00000000E+00 -3.60000000E+00 -3.60000000E+00 -1.00000000E+00 -3.60000000E+00
 -1.00000000E+00 -3.60000000E+00 -3.60000000E+00 -3.60000000E+00 -1.00000000E+00
 -3.60000000E+00 -1.00000000E+00 -3.60000000E+00 -1.00000000E+00 -1.00000000E+00
 -1.00000000E+00
Nuclear ZNuc                               R   N=          21
  6.00000000E+00  1.00000000E+00  6.00000000E+00  1.00000000E+00  6.00000000E+00
  1.00000000E+00  6.00000000E+00  6.00000000E+00  1.00000000E+00  6.00000000E+00
  1.00000000E+00  6.00000000E+00  6.00000000E+00  6.00000000E+00  1.00000000E+00
  6.00000000E+00  1.00000000E+00  6.00000000E+00  1.00000000E+00  1.00000000E+00
  1.00000000E+00
Nuclear QMom                               R   N=          21
  0.00000000E+00  0.00000000E+00  0.00000000E+00  0.00000000E+00  0.00000000E+00
  0.00000000E+00  0.00000000E+00  0.00000000E+00  0.00000000E+00  0.00000000E+00
  0.00000000E+00  0.00000000E+00  0.00000000E+00  0.00000000E+00  0.00000000E+00
  0.00000000E+00  0.00000000E+00  0.00000000E+00  0.00000000E+00  0.00000000E+00
  0.00000000E+00
Nuclear GFac                               R   N=          21
  0.00000000E+00  2.79284600E+00  0.00000000E+00  2.79284600E+00  0.00000000E+00
  2.79284600E+00  0.00000000E+00  0.00000000E+00  2.79284600E+00  0.00000000E+00
  2.79284600E+00  0.00000000E+00  0.00000000E+00  0.00000000E+00  2.79284600E+00
  0.00000000E+00  2.79284600E+00  0.00000000E+00  2.79284600E+00  2.79284600E+00
  2.79284600E+00
MicOpt                                     I   N=          21
          -1          -1          -1          -1          -1          -1
          -1          -1          -1          -1          -1          -1
          -1          -1          -1          -1          -1          -1
          -1          -1          -1
Number of residues                         I                0
Number of secondary structures             I                0
Redundant internal dimensions              I   N=           4
         108          22          36          50
Redundant internal coordinate indices      I   N=         432
           1           2           0           0           1           3
           0           0           1          14           0           0
           3           4           0           0           3           5
           0           0           5           6           0           0
           5           7           0           0           7           8
           0           0           7          13           0           0
           8           9           0           0           8          10
           0           0          10          11           0           0
          10          12           0           0          12          13
           0           0          12          18           0           0
          13          16           0           0          14          15
           0           0          14          16           0           0
          16          17           0           0          18          19
           0           0          18          20           0           0
          18          21           0           0           2           1
           3           0           2           1          14           0
           3           1          14           0           1           3
           4           0           1           3           5           0
           4           3           5           0           3           5
           6           0           3           5           7           0
           6           5           7           0           5           7
           8           0           5           7          13           0
           8           7          13           0           7           8
           9           0           7           8          10           0
           9           8          10           0           8          10
          11           0           8          10          12           0
          11          10          12           0          10          12
          13           0          10          12          18           0
          13          12          18           0           7          13
          12           0           7          13          16           0
          12          13          16           0           1          14
          15           0           1          14          16           0
          15          14          16           0          13          16
          14           0          13          16          17           0
          14          16          17           0          12          18
          19           0          12          18          20           0
          12          18          21           0          19          18
          20           0          19          18          21           0
          20          18          21           0           2           1
           3           4           2           1           3           5
          14           1           3           4          14           1
           3           5           2           1          14          15
           2           1          14          16           3           1
          14          15           3           1          14          16
           1           3           5           6           1           3
           5           7           4           3           5           6
           4           3           5           7           3           5
           7           8           3           5           7          13
           6           5           7           8           6           5
           7          13           5           7           8           9
           5           7           8          10          13           7
           8           9          13           7           8          10
           5           7          13          12           5           7
          13          16           8           7          13          12
           8           7          13          16           7           8
          10          11           7           8          10          12
           9           8          10          11           9           8
          10          12           8          10          12          13
           8          10          12          18          11          10
          12          13          11          10          12          18
          10          12          13           7          10          12
          13          16          18          12          13           7
          18          12          13          16          10          12
          18          19          10          12          18          20
          10          12          18          21          13          12
          18          19          13          12          18          20
          13          12          18          21           7          13
          16          14           7          13          16          17
          12          13          16          14          12          13
          16          17           1          14          16          13
           1          14          16          17          15          14
          16          13          15          14          16          17
Redundant internal coordinates             R   N=         108
  2.05714368E+00  2.63775987E+00  2.63067831E+00  2.05448620E+00  2.63006093E+00
  2.05914136E+00  2.62649378E+00  2.64082330E+00  2.82478844E+00  2.04668562E+00
  2.64676045E+00  2.05151894E+00  2.64560587E+00  2.66157458E+00  2.83409160E+00
  2.61937652E+00  2.05457017E+00  2.63778589E+00  2.05922276E+00  2.07290410E+00
  2.07289962E+00  2.06722856E+00  2.00721745E+00  2.00830977E+00  2.26765809E+00
  2.01902986E+00  2.24350637E+00  2.02064908E+00  2.02095034E+00  2.25279103E+00
  2.00944394E+00  2.19888505E+00  2.22484575E+00  1.85945450E+00  2.18809898E+00
  1.88891601E+00  2.20617031E+00  2.18213795E+00  1.93380878E+00  2.16723857E+00
  1.87447373E+00  2.20396785E+00  2.20474370E+00  1.86812484E+00  2.22000462E+00
  2.19505581E+00  2.01997252E+00  2.24448962E+00  2.01872316E+00  2.25466779E+00
  2.01516328E+00  2.01335423E+00  1.95313359E+00  1.95310292E+00  1.93077774E+00
  1.87230271E+00  1.87532558E+00  1.87532556E+00 -5.17265646E-07 -3.14158713E+00
  3.14158263E+00 -3.97983766E-06 -5.84076404E-05  3.14155892E+00  3.14154375E+00
 -2.42223268E-05  3.14152695E+00  1.93652042E-06 -5.96543734E-05 -3.14158467E+00
  3.14150983E+00  4.11699183E-05 -1.55516802E-05 -3.14148422E+00 -4.59503032E-05
 -3.14157800E+00  3.14144406E+00 -8.79906352E-05 -3.14139060E+00 -6.67911253E-05
  3.06707260E-04 -3.14155479E+00  3.14157999E+00 -1.66877414E-04  4.87423133E-05
  3.14148718E+00  3.64460511E-04 -3.14146192E+00 -3.14138083E+00 -2.19024463E-05
 -4.03295555E-04  3.14145329E+00  3.14142322E+00  9.44907929E-05  2.09063861E+00
 -2.09043836E+00  8.99344076E-05 -1.05123086E+00  1.05087748E+00  3.14140577E+00
  3.39477723E-05 -3.14147364E+00  3.14130981E+00 -1.97782279E-04  1.65212421E-05
  3.14152418E+00 -3.14155147E+00 -4.38088893E-05
ZRed-IntVec                                I   N=         108
           0           0           0           0           0           0
           0           0           0           0           0           0
           0           0           0           0           0           0
           0           0           0           0           0           0
           0           0           0           0           0           0
           0           0           0           0           0           0
           0           0           0           0           0           0
           0           0           0           0           0           0
           0           0           0           0           0           0
           0           0           0           0           0           0
           0           0           0           0           0           0
           0           0           0           0           0           0
           0           0           0           0           0           0
           0           0           0           0           0           0
           0           0           0           0           0           0
           0           0           0           0           0           0
           0           0           0           0           0           0
           0           0           0           0           0           0
ZRed-FPVec                                 R   N=         108
  0.00000000E+00  0.00000000E+00  0.00000000E+00  0.00000000E+00  0.00000000E+00
  0.00000000E+00  0.00000000E+00  0.00000000E+00  0.00000000E+00  0.00000000E+00
  0.00000000E+00  0.00000000E+00  0.00000000E+00  0.00000000E+00  0.00000000E+00
  0.00000000E+00  0.00000000E+00  0.00000000E+00  0.00000000E+00  0.00000000E+00
  0.00000000E+00  0.00000000E+00  0.00000000E+00  0.00000000E+00  0.00000000E+00
  0.00000000E+00  0.00000000E+00  0.00000000E+00  0.00000000E+00  0.00000000E+00
  0.00000000E+00  0.00000000E+00  0.00000000E+00  0.00000000E+00  0.00000000E+00
  0.00000000E+00  0.00000000E+00  0.00000000E+00  0.00000000E+00  0.00000000E+00
  0.00000000E+00  0.00000000E+00  0.00000000E+00  0.00000000E+00  0.00000000E+00
  0.00000000E+00  0.00000000E+00  0.00000000E+00  0.00000000E+00  0.00000000E+00
  0.00000000E+00  0.00000000E+00  0.00000000E+00  0.00000000E+00  0.00000000E+00
  0.00000000E+00  0.00000000E+00  0.00000000E+00  0.00000000E+00  0.00000000E+00
  0.00000000E+00  0.00000000E+00  0.00000000E+00  0.00000000E+00  0.00000000E+00
  0.00000000E+00  0.00000000E+00  0.00000000E+00  0.00000000E+00  0.00000000E+00
  0.00000000E+00  0.00000000E+00  0.00000000E+00  0.00000000E+00  0.00000000E+00
  0.00000000E+00  0.00000000E+00  0.00000000E+00  0.00000000E+00  0.00000000E+00
  0.00000000E+00  0.00000000E+00  0.00000000E+00  0.00000000E+00  0.00000000E+00
  0.00000000E+00  0.00000000E+00  0.00000000E+00  0.00000000E+00  0.00000000E+00
  0.00000000E+00  0.00000000E+00  0.00000000E+00  0.00000000E+00  0.00000000E+00
  0.00000000E+00  0.00000000E+00  0.00000000E+00  0.00000000E+00  0.00000000E+00
  0.00000000E+00  0.00000000E+00  0.00000000E+00  0.00000000E+00  0.00000000E+00
  0.00000000E+00  0.00000000E+00  0.00000000E+00
ZRed-Constraint1                           R   N=         108
  2.05714368E+00  2.63775987E+00  2.63067831E+00  2.05448620E+00  2.63006093E+00
  2.05914136E+00  2.62649378E+00  2.64082330E+00  2.82478844E+00  2.04668562E+00
  2.64676045E+00  2.05151894E+00  2.64560587E+00  2.66157458E+00  2.83409160E+00
  2.61937652E+00  2.05457017E+00  2.63778589E+00  2.05922276E+00  2.07290410E+00
  2.07289962E+00  2.06722856E+00  2.00721745E+00  2.00830977E+00  2.26765809E+00
  2.01902986E+00  2.24350637E+00  2.02064908E+00  2.02095034E+00  2.25279103E+00
  2.00944394E+00  2.19888505E+00  2.22484575E+00  1.85945450E+00  2.18809898E+00
  1.88891601E+00  2.20617031E+00  2.18213795E+00  1.93380878E+00  2.16723857E+00
  1.87447373E+00  2.20396785E+00  2.20474370E+00  1.86812484E+00  2.22000462E+00
  2.19505581E+00  2.01997252E+00  2.24448962E+00  2.01872316E+00  2.25466779E+00
  2.01516328E+00  2.01335423E+00  1.95313359E+00  1.95310292E+00  1.93077774E+00
  1.87230271E+00  1.87532558E+00  1.87532556E+00 -5.17480235E-07 -3.14158713E+00
  3.14158263E+00 -3.97983766E-06 -5.84076442E-05  3.14155892E+00  3.14154375E+00
 -2.42223268E-05  3.14152695E+00  1.93652042E-06 -5.96543772E-05 -3.14158467E+00
  3.14150983E+00  4.11699183E-05 -1.55516731E-05 -3.14148422E+00 -4.59503008E-05
 -3.14157800E+00  3.14144406E+00 -8.79906352E-05 -3.14139060E+00 -6.67911253E-05
  3.06707260E-04 -3.14155479E+00  3.14157999E+00 -1.66877415E-04  4.87423064E-05
  3.14148718E+00  3.64460511E-04 -3.14146192E+00 -3.14138083E+00 -2.19024362E-05
 -4.03295555E-04  3.14145329E+00  3.14142322E+00  9.44907929E-05  2.09063861E+00
 -2.09043836E+00  8.99344076E-05 -1.05123086E+00  1.05087748E+00  3.14140577E+00
  3.39477789E-05 -3.14147364E+00  3.14130981E+00 -1.97782279E-04  1.65212421E-05
  3.14152418E+00 -3.14155147E+00 -4.38088893E-05
ZRed-Constraint2                           R   N=         108
  2.06165396E+00  2.53408046E+00  2.73173948E+00  2.06049657E+00  2.73207804E+00
  2.05722880E+00  2.53009206E+00  2.74481467E+00  2.75738628E+00  2.03509817E+00
  2.53407552E+00  2.03746219E+00  2.73979138E+00  2.54818199E+00  2.91017824E+00
  2.71638057E+00  2.06045757E+00  2.53354701E+00  2.05656212E+00  2.02200696E+00
  2.02200695E+00  2.02200695E+00  2.03877593E+00  1.97942780E+00  2.26497978E+00
  2.04078122E+00  2.26061558E+00  1.98178775E+00  1.98934987E+00  2.22871849E+00
  2.06511677E+00  2.16761001E+00  2.22718737E+00  1.88838785E+00  2.20096169E+00
  1.86314895E+00  2.21907463E+00  2.20682570E+00  1.90607049E+00  2.17028912E+00
  1.92480282E+00  2.14954557E+00  2.20883655E+00  1.84236767E+00  2.27162450E+00
  2.16919298E+00  1.98840945E+00  2.25008528E+00  2.04469044E+00  2.20475084E+00
  2.02405986E+00  2.05437461E+00  1.91063291E+00  1.91063292E+00  1.91063343E+00
  1.91063376E+00  1.91063319E+00  1.91063320E+00  1.43970799E-03 -3.14157816E+00
  3.14083685E+00 -2.18101787E-03 -9.77261784E-04  3.14119707E+00 -3.14043466E+00
  1.73967025E-03 -3.14078354E+00  1.46495651E-03 -5.76999017E-04 -3.14151381E+00
  3.14062360E+00 -4.68500092E-04 -2.88341803E-04 -3.14138044E+00  3.37130285E-04
 -3.14151529E+00  3.14151237E+00 -3.40048513E-04  3.14114514E+00  1.37212203E-04
 -1.16912501E-05 -3.14101962E+00 -3.14112345E+00  5.41480598E-04  2.05922969E-04
 -3.14131446E+00 -5.80589573E-04 -3.14130585E+00  3.14108248E+00  3.57225811E-04
  3.39546676E-04  3.14139130E+00  3.14102822E+00 -1.10533174E-03  2.09381572E+00
 -2.09497424E+00 -5.79250933E-04 -1.04676406E+00  1.04763130E+00 -3.14115903E+00
 -4.31151600E-05  3.14152599E+00 -3.14095401E+00  6.15095372E-04 -5.99742063E-04
  3.14101682E+00  3.14159045E+00  2.17019746E-05
SymInf integers                            I   N=          26
           1           1           1           1           1           0
           0           0           0           0           0           0
           0           0           0           0           0           0
           0           0           0           0           0           0
           0           0
RotTr to input orientation                 R   N=          12
  5.56663977E-02 -9.98447412E-01  2.00464118E-03 -3.62313335E-01 -2.20708598E-02
 -9.31795001E-01  9.30392551E-01  5.11433629E-02 -3.62979417E-01  8.61248742E-01
  1.99686372E+00  2.42315104E-01
Number of contracted shells                I               64
Number of primitive shells                 I              161
Pure/Cartesian d shells                    I                1
Pure/Cartesian f shells                    I                0
Highest angular momentum                   I                2
Largest degree of contraction              I                6
Shell types                                I   N=          64
           0          -1          -1           2           0           0
           0          -1          -1           2           0           0
           0          -1          -1           2           0           0
           0          -1          -1           2           0          -1
          -1           2           0           0           0          -1
          -1           2           0           0           0          -1
          -1           2           0          -1          -1           2
           0          -1          -1           2           0           0
           0          -1          -1           2           0           0
           0          -1          -1           2           0           0
           0           0           0           0
Number of primitives per shell             I   N=          64
           6           3           1           1           3           1
           6           3           1           1           3           1
           6           3           1           1           3           1
           6           3           1           1           6           3
           1           1           3           1           6           3
           1           1           3           1           6           3
           1           1           6           3           1           1
           6           3           1           1           3           1
           6           3           1           1           3           1
           6           3           1           1           3           1
           3           1           3           1
Shell to atom map                          I   N=          64
           1           1           1           1           2           2
           3           3           3           3           4           4
           5           5           5           5           6           6
           7           7           7           7           8           8
           8           8           9           9          10          10
          10          10          11          11          12          12
          12          12          13          13          13          13
          14          14          14          14          15          15
          16          16          16          16          17          17
          18          18          18          18          19          19
          20          20          21          21
Primitive exponents                        R   N=         161
  3.04752488E+03  4.57369518E+02  1.03948685E+02  2.92101553E+01  9.28666296E+00
  3.16392696E+00  7.86827235E+00  1.88128854E+00  5.44249258E-01  1.68714478E-01
  8.00000000E-01  1.87311370E+01  2.82539436E+00  6.40121692E-01  1.61277759E-01
  3.04752488E+03  4.57369518E+02  1.03948685E+02  2.92101553E+01  9.28666296E+00
  3.16392696E+00  7.86827235E+00  1.88128854E+00  5.44249258E-01  1.68714478E-01
  8.00000000E-01  1.87311370E+01  2.82539436E+00  6.40121692E-01  1.61277759E-01
  3.04752488E+03  4.57369518E+02  1.03948685E+02  2.92101553E+01  9.28666296E+00
  3.16392696E+00  7.86827235E+00  1.88128854E+00  5.44249258E-01  1.68714478E-01
  8.00000000E-01  1.87311370E+01  2.82539436E+00  6.40121692E-01  1.61277759E-01
  3.04752488E+03  4.57369518E+02  1.03948685E+02  2.92101553E+01  9.28666296E+00
  3.16392696E+00  7.86827235E+00  1.88128854E+00  5.44249258E-01  1.68714478E-01
  8.00000000E-01  3.04752488E+03  4.57369518E+02  1.03948685E+02  2.92101553E+01
  9.28666296E+00  3.16392696E+00  7.86827235E+00  1.88128854E+00  5.44249258E-01
  1.68714478E-01  8.00000000E-01  1.87311370E+01  2.82539436E+00  6.40121692E-01
  1.61277759E-01  3.04752488E+03  4.57369518E+02  1.03948685E+02  2.92101553E+01
  9.28666296E+00  3.16392696E+00  7.86827235E+00  1.88128854E+00  5.44249258E-01
  1.68714478E-01  8.00000000E-01  1.87311370E+01  2.82539436E+00  6.40121692E-01
  1.61277759E-01  3.04752488E+03  4.57369518E+02  1.03948685E+02  2.92101553E+01
  9.28666296E+00  3.16392696E+00  7.86827235E+00  1.88128854E+00  5.44249258E-01
  1.68714478E-01  8.00000000E-01  3.04752488E+03  4.57369518E+02  1.03948685E+02
  2.92101553E+01  9.28666296E+00  3.16392696E+00  7.86827235E+00  1.88128854E+00
  5.44249258E-01  1.68714478E-01  8.00000000E-01  3.04752488E+03  4.57369518E+02
  1.03948685E+02  2.92101553E+01  9.28666296E+00  3.16392696E+00  7.86827235E+00
  1.88128854E+00  5.44249258E-01  1.68714478E-01  8.00000000E-01  1.87311370E+01
  2.82539436E+00  6.40121692E-01  1.61277759E-01  3.04752488E+03  4.57369518E+02
  1.03948685E+02  2.92101553E+01  9.28666296E+00  3.16392696E+00  7.86827235E+00
  1.88128854E+00  5.44249258E-01  1.68714478E-01  8.00000000E-01  1.87311370E+01
  2.82539436E+00  6.40121692E-01  1.61277759E-01  3.04752488E+03  4.57369518E+02
  1.03948685E+02  2.92101553E+01  9.28666296E+00  3.16392696E+00  7.86827235E+00
  1.88128854E+00  5.44249258E-01  1.68714478E-01  8.00000000E-01  1.87311370E+01
  2.82539436E+00  6.40121692E-01  1.61277759E-01  1.87311370E+01  2.82539436E+00
  6.40121692E-01  1.61277759E-01  1.87311370E+01  2.82539436E+00  6.40121692E-01
  1.61277759E-01
Contraction coefficients                   R   N=         161
  1.83473713E-03  1.40373228E-02  6.88426223E-02  2.32184443E-01  4.67941348E-01
  3.62311985E-01 -1.19332420E-01 -1.60854152E-01  1.14345644E+00  1.00000000E+00
  1.00000000E+00  3.34946043E-02  2.34726953E-01  8.13757326E-01  1.00000000E+00
  1.83473713E-03  1.40373228E-02  6.88426223E-02  2.32184443E-01  4.67941348E-01
  3.62311985E-01 -1.19332420E-01 -1.60854152E-01  1.14345644E+00  1.00000000E+00
  1.00000000E+00  3.34946043E-02  2.34726953E-01  8.13757326E-01  1.00000000E+00
  1.83473713E-03  1.40373228E-02  6.88426223E-02  2.32184443E-01  4.67941348E-01
  3.62311985E-01 -1.19332420E-01 -1.60854152E-01  1.14345644E+00  1.00000000E+00
  1.00000000E+00  3.34946043E-02  2.34726953E-01  8.13757326E-01  1.00000000E+00
  1.83473713E-03  1.40373228E-02  6.88426223E-02  2.32184443E-01  4.67941348E-01
  3.62311985E-01 -1.19332420E-01 -1.60854152E-01  1.14345644E+00  1.00000000E+00
  1.00000000E+00  1.83473713E-03  1.40373228E-02  6.88426223E-02  2.32184443E-01
  4.67941348E-01  3.62311985E-01 -1.19332420E-01 -1.60854152E-01  1.14345644E+00
  1.00000000E+00  1.00000000E+00  3.34946043E-02  2.34726953E-01  8.13757326E-01
  1.00000000E+00  1.83473713E-03  1.40373228E-02  6.88426223E-02  2.32184443E-01
  4.67941348E-01  3.62311985E-01 -1.19332420E-01 -1.60854152E-01  1.14345644E+00
  1.00000000E+00  1.00000000E+00  3.34946043E-02  2.34726953E-01  8.13757326E-01
  1.00000000E+00  1.83473713E-03  1.40373228E-02  6.88426223E-02  2.32184443E-01
  4.67941348E-01  3.62311985E-01 -1.19332420E-01 -1.60854152E-01  1.14345644E+00
  1.00000000E+00  1.00000000E+00  1.83473713E-03  1.40373228E-02  6.88426223E-02
  2.32184443E-01  4.67941348E-01  3.62311985E-01 -1.19332420E-01 -1.60854152E-01
  1.14345644E+00  1.00000000E+00  1.00000000E+00  1.83473713E-03  1.40373228E-02