 Entering Gaussian System, Link 0=g16
 Initial command:
 /home/wangzhe/g16/l1.exe "/home/wangzhe/g16/Scratch/Gau-30670.inp" -scrdir="/home/wangzhe/g16/Scratch/"
 Default is to use a total of  16 processors:
                               16 via shared-memory
                                1 via Linda
 Entering Link 1 = /home/wangzhe/g16/l1.exe PID=     30672.
  
 Copyright (c) 1988-2017, Gaussian, Inc.  All Rights Reserved.
  
 This is part of the Gaussian(R) 16 program.  It is based on
 the Gaussian(R) 09 system (copyright 2009, Gaussian, Inc.),
 the Gaussian(R) 03 system (copyright 2003, Gaussian, Inc.),
 the Gaussian(R) 98 system (copyright 1998, Gaussian, Inc.),
 the Gaussian(R) 94 system (copyright 1995, Gaussian, Inc.),
 the Gaussian 92(TM) system (copyright 1992, Gaussian, Inc.),
 the Gaussian 90(TM) system (copyright 1990, Gaussian, Inc.),
 the Gaussian 88(TM) system (copyright 1988, Gaussian, Inc.),
 the Gaussian 86(TM) system (copyright 1986, Carnegie Mellon
 University), and the Gaussian 82(TM) system (copyright 1983,
 Carnegie Mellon University). Gaussian is a federally registered
 trademark of Gaussian, Inc.
  
 This software contains proprietary and confidential information,
 including trade secrets, belonging to Gaussian, Inc.
  
 This software is provided under written license and may be
 used, copied, transmitted, or stored only in accord with that
 written license.
  
 The following legend is applicable only to US Government
 contracts under FAR:
  
                    RESTRICTED RIGHTS LEGEND
  
 Use, reproduction and disclosure by the US Government is
 subject to restrictions as set forth in subparagraphs (a)
 and (c) of the Commercial Computer Software - Restricted
 Rights clause in FAR 52.227-19.
  
 Gaussian, Inc.
 340 Quinnipiac St., Bldg. 40, Wallingford CT 06492
  
  
 ---------------------------------------------------------------
 Warning -- This program may not be used in any manner that
 competes with the business of Gaussian, Inc. or will provide
 assistance to any competitor of Gaussian, Inc.  The licensee
 of this program is prohibited from giving any competitor of
 Gaussian, Inc. access to this program.  By using this program,
 the user acknowledges that Gaussian, Inc. is engaged in the
 business of creating and licensing software in the field of
 computational chemistry and represents and warrants to the
 licensee that it is not a competitor of Gaussian, Inc. and that
 it will not use this program in any manner prohibited above.
 ---------------------------------------------------------------
  

 Cite this work as:
 Gaussian 16, Revision B.01,
 M. J. Frisch, G. W. Trucks, H. B. Schlegel, G. E. Scuseria, 
 M. A. Robb, J. R. Cheeseman, G. Scalmani, V. Barone, 
 G. A. Petersson, H. Nakatsuji, X. Li, M. Caricato, A. V. Marenich, 
 J. Bloino, B. G. Janesko, R. Gomperts, B. Mennucci, H. P. Hratchian, 
 J. V. Ortiz, A. F. Izmaylov, J. L. Sonnenberg, D. Williams-Young, 
 F. Ding, F. Lipparini, F. Egidi, J. Goings, B. Peng, A. Petrone, 
 T. Henderson, D. Ranasinghe, V. G. Zakrzewski, J. Gao, N. Rega, 
 G. Zheng, W. Liang, M. Hada, M. Ehara, K. Toyota, R. Fukuda, 
 J. Hasegawa, M. Ishida, T. Nakajima, Y. Honda, O. Kitao, H. Nakai, 
 T. Vreven, K. Throssell, J. A. Montgomery, Jr., J. E. Peralta, 
 F. Ogliaro, M. J. Bearpark, J. J. Heyd, E. N. Brothers, K. N. Kudin, 
 V. N. Staroverov, T. A. Keith, R. Kobayashi, J. Normand, 
 K. Raghavachari, A. P. Rendell, J. C. Burant, S. S. Iyengar, 
 J. Tomasi, M. Cossi, J. M. Millam, M. Klene, C. Adamo, R. Cammi, 
 J. W. Ochterski, R. L. Martin, K. Morokuma, O. Farkas, 
 J. B. Foresman, and D. J. Fox, Gaussian, Inc., Wallingford CT, 2016.
 
 ******************************************
 Gaussian 16:  ES64L-G16RevB.01 20-Dec-2017
                 3-Oct-2023 
 ******************************************
 %nproc=8
 Will use up to    8 processors via shared memory.
 %mem=10gb
 ----------------
 # ub3lyp/6-31+G*
 ----------------
 1/38=1,172=1/1;
 2/12=2,17=6,18=5,40=1/2;
 3/5=1,6=6,7=11,11=2,25=1,30=1,74=-5,116=2/1,2,3;
 4//1;
 5/5=2,38=5/2;
 6/7=2,8=2,9=2,10=2,28=1/1;
 99/5=1,9=1/99;
 -----
 title
 -----
 Symbolic Z-matrix:
 Charge = -1 Multiplicity = 2
 C                    -0.94298   0.11004   2.35354 
 H                    -1.95525  -1.81061   2.42628 
 C                    -0.18028   0.97245   1.59541 
 C                     0.94298  -0.11004  -2.35354 
 C                    -0.20799  -0.63117  -0.27 
 C                     0.20799   0.63117   0.27 
 H                    -0.13591  -1.93027  -2.00334 
 H                     1.23258  -0.3839   -3.36483 
 H                     1.3088    2.45516  -0.12754 
 C                    -0.99433  -1.4982    0.53859 
 H                    -1.3088   -2.45516   0.12754 
 H                    -1.23258   0.3839    3.36483 
 C                     0.99433   1.4982   -0.53859 
 H                     0.13591   1.93027   2.00334 
 C                    -1.35417  -1.13811   1.81967 
 C                     1.35417   1.13811  -1.81967 
 H                     1.95525   1.81061  -2.42628 
 C                     0.18028  -0.97245  -1.59541 
 
                          Input orientation:                          
 ---------------------------------------------------------------------
 Center     Atomic      Atomic             Coordinates (Angstroms)
 Number     Number       Type             X           Y           Z
 ---------------------------------------------------------------------
      1          6           0       -0.942979    0.110042    2.353537
      2          1           0       -1.955254   -1.810606    2.426277
      3          6           0       -0.180275    0.972453    1.595413
      4          6           0        0.942979   -0.110042   -2.353537
      5          6           0       -0.207989   -0.631167   -0.270002
      6          6           0        0.207989    0.631167    0.270002
      7          1           0       -0.135911   -1.930266   -2.003343
      8          1           0        1.232581   -0.383902   -3.364830
      9          1           0        1.308800    2.455159   -0.127544
     10          6           0       -0.994329   -1.498197    0.538585
     11          1           0       -1.308800   -2.455159    0.127544
     12          1           0       -1.232581    0.383902    3.364830
     13          6           0        0.994329    1.498197   -0.538585
     14          1           0        0.135911    1.930266    2.003343
     15          6           0       -1.354173   -1.138108    1.819672
     16          6           0        1.354173    1.138108   -1.819672
     17          1           0        1.955254    1.810606   -2.426277
     18          6           0        0.180275   -0.972453   -1.595413
 ---------------------------------------------------------------------
                    Distance matrix (angstroms):
                    1          2          3          4          5
     1  C    0.000000
     2  H    2.172298   0.000000
     3  C    1.378485   3.403866   0.000000
     4  C    5.075610   5.842799   4.245904   0.000000
     5  C    2.823572   3.422562   2.460109   2.436681   0.000000
     6  C    2.436681   3.910422   1.422652   2.823572   1.434618
     7  H    4.878178   4.790184   4.623720   2.144727   2.167331
     8  H    6.138140   6.762743   5.332905   1.087006   3.422622
     9  H    4.089724   5.947504   2.717415   3.416010   3.441853
    10  C    2.425514   2.141111   2.807789   3.747600   1.422633
    11  H    3.416010   2.473363   3.895733   4.089724   2.167204
    12  H    1.087006   2.493793   2.141162   6.138140   3.910519
    13  C    3.747600   5.332788   2.491997   2.425514   2.460060
    14  H    2.144727   4.306503   1.088019   4.878178   3.441991
    15  C    1.418440   1.086978   2.425448   4.873346   2.436691
    16  C    4.873346   6.138021   3.747636   1.418440   2.823502
    17  H    5.842799   7.207810   4.630008   2.172298   3.910422
    18  C    4.245904   4.630008   3.754201   1.378485   1.422652
                    6          7          8          9         10
     6  C    0.000000
     7  H    3.441991   0.000000
     8  H    3.910519   2.473390   0.000000
     9  H    2.167204   4.983750   4.306518   0.000000
    10  C    2.460060   2.717529   4.630057   4.623544   0.000000
    11  H    3.441853   2.488345   4.790136   5.570289   1.087944
    12  H    3.422622   5.947717   7.207973   4.790136   3.403927
    13  C    1.422633   3.895808   3.403927   1.087944   3.754122
    14  H    2.167331   5.570559   5.947717   2.488345   3.895808
    15  C    2.823502   4.089880   5.842875   4.877975   1.378527
    16  C    2.436691   3.415992   2.172283   2.144756   4.245815
    17  H    3.422562   4.306503   2.493793   2.473363   5.332788
    18  C    2.460109   1.088019   2.141162   3.895733   2.491997
                   11         12         13         14         15
    11  H    0.000000
    12  H    4.306518   0.000000
    13  C    4.623544   4.630057   0.000000
    14  H    4.983750   2.473390   2.717529   0.000000
    15  C    2.144756   2.172283   4.245815   3.415992   0.000000
    16  C    4.877975   5.842875   1.378527   4.089880   5.075542
    17  H    5.947504   6.762743   2.141111   4.790184   6.138021
    18  C    2.717415   5.332905   2.807789   4.623720   3.747636
                   16         17         18
    16  C    0.000000
    17  H    1.086978   0.000000
    18  C    2.425448   3.403866   0.000000
 Stoichiometry    C10H8(1-,2)
 Framework group  CI[X(C10H8)]
 Deg. of freedom    24
 Full point group                 CI      NOp   2
 Largest Abelian subgroup         CI      NOp   2
 Largest concise Abelian subgroup CI      NOp   2
                         Standard orientation:                         
 ---------------------------------------------------------------------
 Center     Atomic      Atomic             Coordinates (Angstroms)
 Number     Number       Type             X           Y           Z
 ---------------------------------------------------------------------
      1          6           0       -0.942979    0.110042    2.353537
      2          1           0       -1.955254   -1.810606    2.426277
      3          6           0       -0.180275    0.972453    1.595413
      4          6           0        0.942979   -0.110042   -2.353537
      5          6           0       -0.207989   -0.631167   -0.270002
      6          6           0        0.207989    0.631167    0.270002
      7          1           0       -0.135911   -1.930266   -2.003343
      8          1           0        1.232581   -0.383902   -3.364830
      9          1           0        1.308800    2.455159   -0.127544
     10          6           0       -0.994329   -1.498197    0.538585
     11          1           0       -1.308800   -2.455159    0.127544
     12          1           0       -1.232581    0.383902    3.364830
     13          6           0        0.994329    1.498197   -0.538585
     14          1           0        0.135911    1.930266    2.003343
     15          6           0       -1.354173   -1.138108    1.819672
     16          6           0        1.354173    1.138108   -1.819672
     17          1           0        1.955254    1.810606   -2.426277
     18          6           0        0.180275   -0.972453   -1.595413
 ---------------------------------------------------------------------
 Rotational constants (GHZ):           3.1120091           1.2271024           0.8800773
 Standard basis: 6-31+G(d) (6D, 7F)
 There are   103 symmetry adapted cartesian basis functions of AG  symmetry.
 There are   103 symmetry adapted cartesian basis functions of AU  symmetry.
 There are   103 symmetry adapted basis functions of AG  symmetry.
 There are   103 symmetry adapted basis functions of AU  symmetry.
   206 basis functions,   352 primitive gaussians,   206 cartesian basis functions
    35 alpha electrons       34 beta electrons
       nuclear repulsion energy       456.7189357585 Hartrees.
 NAtoms=   18 NActive=   18 NUniq=    9 SFac= 4.00D+00 NAtFMM=   60 NAOKFM=F Big=F
 Integral buffers will be    131072 words long.
 Raffenetti 2 integral format.
 Two-electron integral symmetry is turned on.
 One-electron integrals computed using PRISM.
 NBasis=   206 RedAO= T EigKep=  1.40D-06  NBF=   103   103
 NBsUse=   205 1.00D-06 EigRej=  7.42D-07 NBFU=   102   103
 ExpMin= 4.38D-02 ExpMax= 3.05D+03 ExpMxC= 4.57D+02 IAcc=3 IRadAn=         5 AccDes= 0.00D+00
 Harris functional with IExCor=  402 and IRadAn=       5 diagonalized for initial guess.
 HarFok:  IExCor=  402 AccDes= 0.00D+00 IRadAn=         5 IDoV= 1 UseB2=F ITyADJ=14
 ICtDFT=  3500011 ScaDFX=  1.000000  1.000000  1.000000  1.000000
 FoFCou: FMM=F IPFlag=           0 FMFlag=      100000 FMFlg1=           0
         NFxFlg=           0 DoJE=T BraDBF=F KetDBF=T FulRan=T
         wScrn=  0.000000 ICntrl=       500 IOpCl=  0 I1Cent=   200000004 NGrid=           0
         NMat0=    1 NMatS0=      1 NMatT0=    0 NMatD0=    1 NMtDS0=    0 NMtDT0=    0
 Petite list used in FoFCou.
 Initial guess orbital symmetries:
 Alpha Orbitals:
       Occupied  (AU) (AG) (AG) (AU) (AG) (AU) (AU) (AG) (AG) (AU)
                 (AG) (AU) (AU) (AG) (AG) (AU) (AU) (AG) (AU) (AG)
                 (AG) (AG) (AU) (AU) (AG) (AU) (AU) (AU) (AG) (AG)
                 (AG) (AG) (AU) (AU) (AG)
       Virtual   (AG) (AU) (AU) (AG) (AU) (AU) (AG) (AG) (AG) (AG)
                 (AU) (AU) (AU) (AG) (AU) (AG) (AG) (AG) (AU) (AU)
                 (AU) (AU) (AG) (AU) (AU) (AG) (AU) (AU) (AG) (AG)
                 (AG) (AG) (AU) (AG) (AU) (AU) (AG) (AU) (AU) (AG)
                 (AG) (AG) (AU) (AG) (AG) (AU) (AU) (AG) (AU) (AG)
                 (AU) (AU) (AG) (AU) (AG) (AU) (AG) (AU) (AU) (AG)
                 (AU) (AG) (AU) (AG) (AU) (AG) (AU) (AG) (AU) (AG)
                 (AG) (AG) (AU) (AU) (AU) (AG) (AG) (AU) (AU) (AG)
                 (AU) (AU) (AG) (AG) (AG) (AU) (AU) (AG) (AG) (AU)
                 (AG) (AU) (AU) (AG) (AG) (AU) (AG) (AU) (AG) (AU)
                 (AU) (AG) (AU) (AG) (AU) (AU) (AG) (AG) (AU) (AG)
                 (AG) (AG) (AU) (AU) (AU) (AG) (AU) (AG) (AG) (AU)
                 (AG) (AG) (AG) (AU) (AU) (AG) (AU) (AU) (AU) (AG)
                 (AU) (AU) (AG) (AG) (AU) (AG) (AG) (AG) (AU) (AU)
                 (AG) (AG) (AU) (AU) (AU) (AU) (AG) (AG) (AU) (AG)
                 (AG) (AU) (AG) (AU) (AG) (AU) (AG) (AU) (AU) (AG)
                 (AG) (AU) (AG) (AU) (AG) (AU) (AU) (AG) (AG) (AU)
 Beta  Orbitals:
       Occupied  (AU) (AG) (AG) (AU) (AG) (AU) (AU) (AG) (AG) (AU)
                 (AG) (AU) (AU) (AG) (AG) (AU) (AU) (AG) (AU) (AG)
                 (AG) (AG) (AU) (AU) (AG) (AU) (AU) (AU) (AG) (AG)
                 (AG) (AG) (AU) (AU)
       Virtual   (AG) (AG) (AU) (AU) (AG) (AU) (AU) (AG) (AG) (AG)
                 (AG) (AU) (AU) (AU) (AG) (AU) (AG) (AG) (AG) (AU)
                 (AU) (AU) (AU) (AG) (AU) (AU) (AG) (AU) (AU) (AG)
                 (AG) (AG) (AG) (AU) (AG) (AU) (AU) (AG) (AU) (AU)
                 (AG) (AG) (AG) (AU) (AG) (AG) (AU) (AU) (AG) (AU)
                 (AG) (AU) (AU) (AG) (AU) (AG) (AU) (AG) (AU) (AU)
                 (AG) (AU) (AG) (AU) (AG) (AU) (AG) (AU) (AG) (AU)
                 (AG) (AG) (AG) (AU) (AU) (AU) (AG) (AG) (AU) (AU)
                 (AG) (AU) (AU) (AG) (AG) (AG) (AU) (AU) (AG) (AG)
                 (AU) (AG) (AU) (AU) (AG) (AG) (AU) (AG) (AU) (AG)
                 (AU) (AU) (AG) (AU) (AG) (AU) (AU) (AG) (AG) (AU)
                 (AG) (AG) (AG) (AU) (AU) (AU) (AG) (AU) (AG) (AG)
                 (AU) (AG) (AG) (AG) (AU) (AU) (AG) (AU) (AU) (AU)
                 (AG) (AU) (AU) (AG) (AG) (AU) (AG) (AG) (AG) (AU)
                 (AU) (AG) (AG) (AU) (AU) (AU) (AU) (AG) (AG) (AU)
                 (AG) (AG) (AU) (AG) (AU) (AG) (AU) (AG) (AU) (AU)
                 (AG) (AG) (AU) (AG) (AU) (AG) (AU) (AU) (AG) (AG)
                 (AU)
 The electronic state of the initial guess is 2-AG.
 Initial guess <Sx>= 0.0000 <Sy>= 0.0000 <Sz>= 0.5000 <S**2>= 0.7500 S= 0.5000
 Keep R1 and R2 ints in memory in symmetry-blocked form, NReq=341024756.
 Requested convergence on RMS density matrix=1.00D-08 within 128 cycles.
 Requested convergence on MAX density matrix=1.00D-06.
 Requested convergence on             energy=1.00D-06.
 No special actions if energy rises.
 SCF Done:  E(UB3LYP) =  -385.893038218     A.U. after   15 cycles
            NFock= 15  Conv=0.38D-08     -V/T= 2.0093
 <Sx>= 0.0000 <Sy>= 0.0000 <Sz>= 0.5000 <S**2>= 0.7591 S= 0.5045
 <L.S>=  0.00000000000    
 Annihilation of the first spin contaminant:
 S**2 before annihilation     0.7591,   after     0.7501

 **********************************************************************

            Population analysis using the SCF Density.

 **********************************************************************

 Orbital symmetries:
 Alpha Orbitals:
       Occupied  (AG) (AU) (AG) (AU) (AG) (AU) (AG) (AU) (AU) (AG)
                 (AG) (AU) (AU) (AG) (AG) (AU) (AU) (AG) (AG) (AU)
                 (AG) (AU) (AG) (AG) (AU) (AU) (AU) (AU) (AG) (AG)
                 (AG) (AG) (AU) (AU) (AG)
       Virtual   (AG) (AU) (AU) (AG) (AG) (AG) (AU) (AU) (AU) (AU)
                 (AG) (AG) (AG) (AG) (AU) (AG) (AU) (AU) (AU) (AU)
                 (AU) (AG) (AU) (AG) (AU) (AG) (AG) (AG) (AG) (AU)
                 (AU) (AU) (AU) (AG) (AG) (AU) (AG) (AU) (AG) (AG)
                 (AG) (AU) (AU) (AU) (AG) (AU) (AU) (AG) (AU) (AG)
                 (AG) (AG) (AU) (AG) (AU) (AG) (AU) (AU) (AU) (AG)
                 (AU) (AG) (AG) (AU) (AG) (AU) (AU) (AG) (AU) (AG)
                 (AU) (AG) (AU) (AG) (AG) (AG) (AU) (AU) (AU) (AG)
                 (AU) (AG) (AU) (AG) (AG) (AU) (AU) (AG) (AG) (AU)
                 (AG) (AU) (AU) (AG) (AG) (AG) (AU) (AU) (AU) (AG)
                 (AU) (AU) (AG) (AG) (AU) (AG) (AU) (AG) (AG) (AU)
                 (AU) (AG) (AG) (AG) (AU) (AU) (AU) (AG) (AG) (AU)
                 (AG) (AG) (AU) (AG) (AG) (AU) (AU) (AU) (AU) (AG)
                 (AU) (AU) (AG) (AG) (AU) (AG) (AG) (AG) (AU) (AU)
                 (AG) (AG) (AU) (AU) (AU) (AU) (AG) (AU) (AG) (AG)
                 (AG) (AU) (AG) (AU) (AG) (AU) (AG) (AU) (AU) (AG)
                 (AG) (AU) (AG) (AU) (AG) (AU) (AU) (AG) (AG) (AU)
 Beta  Orbitals:
       Occupied  (AG) (AU) (AG) (AU) (AG) (AU) (AG) (AU) (AU) (AG)
                 (AG) (AU) (AU) (AG) (AG) (AU) (AU) (AG) (AU) (AG)
                 (AG) (AU) (AG) (AG) (AU) (AU) (AU) (AU) (AG) (AG)
                 (AG) (AG) (AU) (AU)
       Virtual   (AG) (AU) (AU) (AG) (AG) (AG) (AG) (AU) (AU) (AU)
                 (AG) (AU) (AG) (AG) (AG) (AG) (AU) (AU) (AU) (AU)
                 (AG) (AU) (AU) (AU) (AU) (AG) (AG) (AG) (AG) (AG)
                 (AU) (AU) (AU) (AU) (AG) (AG) (AU) (AG) (AU) (AG)
                 (AG) (AG) (AU) (AU) (AG) (AU) (AU) (AU) (AG) (AU)
                 (AG) (AG) (AG) (AU) (AG) (AU) (AG) (AU) (AU) (AU)
                 (AG) (AU) (AG) (AG) (AU) (AU) (AG) (AU) (AG) (AU)
                 (AG) (AU) (AG) (AU) (AG) (AG) (AU) (AG) (AU) (AU)
                 (AG) (AU) (AG) (AU) (AG) (AG) (AU) (AU) (AG) (AG)
                 (AU) (AG) (AU) (AU) (AG) (AG) (AG) (AU) (AU) (AU)
                 (AG) (AU) (AU) (AG) (AG) (AU) (AG) (AU) (AG) (AG)
                 (AU) (AU) (AG) (AG) (AG) (AU) (AU) (AU) (AG) (AG)
                 (AU) (AG) (AG) (AU) (AG) (AG) (AU) (AU) (AU) (AU)
                 (AG) (AU) (AU) (AG) (AG) (AU) (AG) (AG) (AG) (AU)
                 (AU) (AG) (AG) (AU) (AU) (AU) (AU) (AG) (AU) (AG)
                 (AG) (AG) (AU) (AG) (AU) (AG) (AU) (AG) (AU) (AU)
                 (AG) (AG) (AU) (AG) (AU) (AG) (AU) (AU) (AG) (AG)
                 (AU)
 The electronic state is 2-AG.
 Alpha  occ. eigenvalues --  -10.03082 -10.03040 -10.02280 -10.02280 -10.02232
 Alpha  occ. eigenvalues --  -10.02232 -10.01054 -10.01054 -10.01053 -10.01052
 Alpha  occ. eigenvalues --   -0.70071  -0.64974  -0.60194  -0.57123  -0.54998
 Alpha  occ. eigenvalues --   -0.45880  -0.44221  -0.42804  -0.34763  -0.34745
 Alpha  occ. eigenvalues --   -0.32585  -0.28274  -0.27189  -0.24979  -0.24519
 Alpha  occ. eigenvalues --   -0.23778  -0.22343  -0.20385  -0.17105  -0.16549
 Alpha  occ. eigenvalues --   -0.16481  -0.12302  -0.08292  -0.05890   0.07532
 Alpha virt. eigenvalues --    0.12382   0.12874   0.12916   0.14597   0.14667
 Alpha virt. eigenvalues --    0.14890   0.15551   0.16543   0.17135   0.18726
 Alpha virt. eigenvalues --    0.18953   0.20262   0.20344   0.21206   0.21429
 Alpha virt. eigenvalues --    0.21988   0.23877   0.24605   0.25326   0.25641
 Alpha virt. eigenvalues --    0.25957   0.26297   0.26372   0.28298   0.28485
 Alpha virt. eigenvalues --    0.28810   0.29767   0.31099   0.31161   0.32208
 Alpha virt. eigenvalues --    0.32370   0.32848   0.33347   0.33391   0.34543
 Alpha virt. eigenvalues --    0.34689   0.35630   0.37323   0.37472   0.37760
 Alpha virt. eigenvalues --    0.39697   0.39913   0.39939   0.40754   0.40783
 Alpha virt. eigenvalues --    0.41715   0.43247   0.43545   0.44614   0.46419
 Alpha virt. eigenvalues --    0.47084   0.49293   0.49660   0.50467   0.51458
 Alpha virt. eigenvalues --    0.54393   0.55500   0.57950   0.69113   0.70304
 Alpha virt. eigenvalues --    0.76442   0.80181   0.82381   0.82469   0.83937
 Alpha virt. eigenvalues --    0.84151   0.87393   0.88025   0.88276   0.88281
 Alpha virt. eigenvalues --    0.89306   0.90411   0.90538   0.91557   0.92743
 Alpha virt. eigenvalues --    0.93019   0.93826   0.94929   0.96834   0.97407
 Alpha virt. eigenvalues --    0.97968   1.03819   1.05017   1.05876   1.07984
 Alpha virt. eigenvalues --    1.08488   1.10591   1.12209   1.15448   1.16410
 Alpha virt. eigenvalues --    1.16946   1.20845   1.24497   1.25349   1.28802
 Alpha virt. eigenvalues --    1.29370   1.29521   1.30842   1.36356   1.37008
 Alpha virt. eigenvalues --    1.39899   1.41071   1.42535   1.44238   1.50202
 Alpha virt. eigenvalues --    1.54611   1.56040   1.58210   1.61080   1.62497
 Alpha virt. eigenvalues --    1.64291   1.65611   1.66211   1.66419   1.67007
 Alpha virt. eigenvalues --    1.67580   1.73713   1.90493   1.98003   1.99779
 Alpha virt. eigenvalues --    2.03058   2.06957   2.08568   2.11409   2.13519
 Alpha virt. eigenvalues --    2.14549   2.15298   2.15656   2.17151   2.23867
 Alpha virt. eigenvalues --    2.26879   2.30337   2.34990   2.36309   2.37029
 Alpha virt. eigenvalues --    2.37421   2.38427   2.45143   2.48627   2.50012
 Alpha virt. eigenvalues --    2.50469   2.51898   2.54780   2.63796   2.78142
 Alpha virt. eigenvalues --    2.79669   2.80468   2.82590   2.83649   2.83736
 Alpha virt. eigenvalues --    2.91218   2.95588   2.95903   3.00848   3.06022
 Alpha virt. eigenvalues --    3.06542   3.11564   3.28281   3.52109   3.63663
 Alpha virt. eigenvalues --    4.39007   4.41837   4.45588   4.47647   4.48943
 Alpha virt. eigenvalues --    4.51804   4.59226   4.61860   4.72259   4.97724
  Beta  occ. eigenvalues --  -10.03167 -10.03125 -10.02214 -10.02214 -10.02168
  Beta  occ. eigenvalues --  -10.02168 -10.00727 -10.00727 -10.00726 -10.00725
  Beta  occ. eigenvalues --   -0.69736  -0.64512  -0.59587  -0.56889  -0.54409
  Beta  occ. eigenvalues --   -0.45159  -0.44118  -0.42389  -0.34531  -0.34352
  Beta  occ. eigenvalues --   -0.32427  -0.28068  -0.27076  -0.24769  -0.24341
  Beta  occ. eigenvalues --   -0.23625  -0.21439  -0.20201  -0.16909  -0.16389
  Beta  occ. eigenvalues --   -0.15225  -0.10651  -0.07555  -0.03809
  Beta virt. eigenvalues --    0.12338   0.12812   0.12899   0.13320   0.14606
  Beta virt. eigenvalues --    0.14685   0.14845   0.16235   0.16466   0.17114
  Beta virt. eigenvalues --    0.19061   0.19392   0.20317   0.20558   0.21202
  Beta virt. eigenvalues --    0.21886   0.21976   0.23973   0.24520   0.25676
  Beta virt. eigenvalues --    0.26214   0.26326   0.26435   0.26741   0.28545
  Beta virt. eigenvalues --    0.28824   0.29002   0.29680   0.31088   0.31146
  Beta virt. eigenvalues --    0.32559   0.32924   0.32926   0.33386   0.33420
  Beta virt. eigenvalues --    0.34545   0.34810   0.35651   0.37240   0.37644
  Beta virt. eigenvalues --    0.39016   0.39828   0.39886   0.40076   0.40853
  Beta virt. eigenvalues --    0.41035   0.41844   0.43358   0.43726   0.44694
  Beta virt. eigenvalues --    0.46706   0.47455   0.49349   0.49897   0.50612
  Beta virt. eigenvalues --    0.51787   0.54493   0.55489   0.58240   0.69499
  Beta virt. eigenvalues --    0.70582   0.76463   0.80683   0.82484   0.83109
  Beta virt. eigenvalues --    0.84191   0.84583   0.88505   0.88523   0.88602
  Beta virt. eigenvalues --    0.89109   0.89835   0.90618   0.90668   0.92119
  Beta virt. eigenvalues --    0.93225   0.93813   0.94127   0.95146   0.96956
  Beta virt. eigenvalues --    0.97536   0.99242   1.03799   1.05265   1.05973
  Beta virt. eigenvalues --    1.08247   1.08520   1.10798   1.12387   1.15570
  Beta virt. eigenvalues --    1.16559   1.17085   1.21079   1.24830   1.25582
  Beta virt. eigenvalues --    1.28818   1.29596   1.29965   1.30959   1.36534
  Beta virt. eigenvalues --    1.37326   1.40180   1.41545   1.43256   1.44667
  Beta virt. eigenvalues --    1.50389   1.54801   1.56900   1.59193   1.61423
  Beta virt. eigenvalues --    1.63042   1.64641   1.66073   1.66611   1.67131
  Beta virt. eigenvalues --    1.67514   1.68606   1.73873   1.91262   1.98102
  Beta virt. eigenvalues --    2.00080   2.04093   2.07362   2.08857   2.11468
  Beta virt. eigenvalues --    2.13740   2.14966   2.15553   2.16244   2.18212
  Beta virt. eigenvalues --    2.24273   2.27091   2.30647   2.35034   2.37047
  Beta virt. eigenvalues --    2.37483   2.38421   2.38915   2.45396   2.49301
  Beta virt. eigenvalues --    2.51109   2.51341   2.52644   2.55503   2.64677
  Beta virt. eigenvalues --    2.78911   2.80314   2.80736   2.82783   2.83891
  Beta virt. eigenvalues --    2.84313   2.91957   2.95580   2.96530   3.01076
  Beta virt. eigenvalues --    3.06189   3.06812   3.11796   3.28589   3.52277
  Beta virt. eigenvalues --    3.63805   4.39369   4.42080   4.45705   4.48139
  Beta virt. eigenvalues --    4.49493   4.52556   4.59323   4.62269   4.72684
  Beta virt. eigenvalues --    4.97997
          Condensed to atoms (all electrons):
               1          2          3          4          5          6
     1  C    6.703382  -0.081195  -0.781994   0.055875   0.673113   0.028131
     2  H   -0.081195   0.605524   0.053811   0.001324   0.036294   0.012262
     3  C   -0.781994   0.053811  10.420071   0.203984  -2.801311  -3.632469
     4  C    0.055875   0.001324   0.203984   6.703382   0.028131   0.673113
     5  C    0.673113   0.036294  -2.801311   0.028131  14.453571   2.937162
     6  C    0.028131   0.012262  -3.632469   0.673113   2.937162  14.453571
     7  H    0.001256  -0.000010   0.005165   0.037463   0.007060   0.079097
     8  H   -0.001439  -0.000000   0.011691   0.354187   0.036287   0.012245
     9  H   -0.010501   0.000000  -0.067624   0.016780   0.079079   0.006965
    10  C   -0.754441  -0.079703   1.142544  -0.434825  -3.632882  -2.800738
    11  H    0.016780  -0.005524  -0.031272  -0.010501   0.006965   0.079079
    12  H    0.354187  -0.004980  -0.079681  -0.001439   0.012245   0.036287
    13  C   -0.434825   0.011696   2.309172  -0.754441  -2.800738  -3.632882
    14  H    0.037463  -0.000201   0.227067   0.001256   0.079097   0.007060
    15  C    0.728919   0.354208  -0.754677  -0.314558   0.028463   0.672978
    16  C   -0.314558  -0.001439  -0.434739   0.728919   0.672978   0.028463
    17  H    0.001324  -0.000000  -0.025484  -0.081195   0.012262   0.036294
    18  C    0.203984  -0.025484   0.212899  -0.781994  -3.632469  -2.801311
               7          8          9         10         11         12
     1  C    0.001256  -0.001439  -0.010501  -0.754441   0.016780   0.354187
     2  H   -0.000010  -0.000000   0.000000  -0.079703  -0.005524  -0.004980
     3  C    0.005165   0.011691  -0.067624   1.142544  -0.031272  -0.079681
     4  C    0.037463   0.354187   0.016780  -0.434825  -0.010501  -0.001439
     5  C    0.007060   0.036287   0.079079  -3.632882   0.006965   0.012245
     6  C    0.079097   0.012245   0.006965  -2.800738   0.079079   0.036287
     7  H    0.609749  -0.005524   0.000021  -0.067674   0.004616   0.000000
     8  H   -0.005524   0.605511  -0.000201  -0.025473  -0.000010  -0.000000
     9  H    0.000021  -0.000201   0.609763   0.005152   0.000002  -0.000010
    10  C   -0.067674  -0.025473   0.005152  10.419556   0.227186   0.053797
    11  H    0.004616  -0.000010   0.000002   0.227186   0.609763  -0.000201
    12  H    0.000000  -0.000000  -0.000010   0.053797  -0.000201   0.605511
    13  C   -0.031263   0.053797   0.227186   0.213158   0.005152  -0.025473
    14  H    0.000002   0.000000   0.004616  -0.031263   0.000021  -0.005524
    15  C   -0.010497   0.001324   0.001261  -0.781874   0.037402  -0.081158
    16  C    0.016767  -0.081158   0.037402   0.203835   0.001261   0.001324
    17  H   -0.000201  -0.004980  -0.005524   0.011696   0.000000  -0.000000
    18  C    0.227067  -0.079681  -0.031272   2.309172  -0.067624   0.011691
              13         14         15         16         17         18
     1  C   -0.434825   0.037463   0.728919  -0.314558   0.001324   0.203984
     2  H    0.011696  -0.000201   0.354208  -0.001439  -0.000000  -0.025484
     3  C    2.309172   0.227067  -0.754677  -0.434739  -0.025484   0.212899
     4  C   -0.754441   0.001256  -0.314558   0.728919  -0.081195  -0.781994
     5  C   -2.800738   0.079097   0.028463   0.672978   0.012262  -3.632469
     6  C   -3.632882   0.007060   0.672978   0.028463   0.036294  -2.801311
     7  H   -0.031263   0.000002  -0.010497   0.016767  -0.000201   0.227067
     8  H    0.053797   0.000000   0.001324  -0.081158  -0.004980  -0.079681
     9  H    0.227186   0.004616   0.001261   0.037402  -0.005524  -0.031272
    10  C    0.213158  -0.031263  -0.781874   0.203835   0.011696   2.309172
    11  H    0.005152   0.000021   0.037402   0.001261   0.000000  -0.067624
    12  H   -0.025473  -0.005524  -0.081158   0.001324  -0.000000   0.011691
    13  C   10.419556  -0.067674   0.203835  -0.781874  -0.079703   1.142544
    14  H   -0.067674   0.609749   0.016767  -0.010497  -0.000010   0.005165
    15  C    0.203835   0.016767   6.703408   0.055891  -0.001439  -0.434739
    16  C   -0.781874  -0.010497   0.055891   6.703408   0.354208  -0.754677
    17  H   -0.079703  -0.000010  -0.001439   0.354208   0.605524   0.053811
    18  C    1.142544   0.005165  -0.434739  -0.754677   0.053811  10.420071
          Atomic-Atomic Spin Densities.
               1          2          3          4          5          6
     1  C    0.237216  -0.004261  -0.293768  -0.020043  -0.027499   0.041453
     2  H   -0.004261  -0.004902   0.000532   0.000011  -0.000085   0.002636
     3  C   -0.293768   0.000532   0.719104   0.038040   0.037276  -0.073367
     4  C   -0.020043   0.000011   0.038040   0.237216   0.041453  -0.027499
     5  C   -0.027499  -0.000085   0.037276   0.041453  -0.034684  -0.043280
     6  C    0.041453   0.002636  -0.073367  -0.027499  -0.043280  -0.034684
     7  H    0.000149   0.000000  -0.001024  -0.001932  -0.013214  -0.003165
     8  H    0.000003   0.000000   0.000362   0.010065  -0.000087   0.002637
     9  H   -0.002655  -0.000000   0.001671   0.002800  -0.003165  -0.013221
    10  C   -0.129460  -0.008095   0.153850   0.044476  -0.073456   0.037318
    11  H    0.002800   0.000199  -0.000072  -0.002655  -0.013221  -0.003165
    12  H    0.010065   0.000132  -0.008107   0.000003   0.002637  -0.000087
    13  C    0.044476   0.000362  -0.165320  -0.129460   0.037318  -0.073456
    14  H   -0.001932   0.000002   0.018190   0.000149  -0.003165  -0.013214
    15  C    0.196225   0.010059  -0.129534  -0.014914   0.041510  -0.027488
    16  C   -0.014914   0.000003   0.044487   0.196225  -0.027488   0.041510
    17  H    0.000011   0.000000  -0.001269  -0.004261   0.002636  -0.000085
    18  C    0.038040  -0.001269  -0.073181  -0.293768  -0.073367   0.037276
               7          8          9         10         11         12
     1  C    0.000149   0.000003  -0.002655  -0.129460   0.002800   0.010065
     2  H    0.000000   0.000000  -0.000000  -0.008095   0.000199   0.000132
     3  C   -0.001024   0.000362   0.001671   0.153850  -0.000072  -0.008107
     4  C   -0.001932   0.010065   0.002800   0.044476  -0.002655   0.000003
     5  C   -0.013214  -0.000087  -0.003165  -0.073456  -0.013221   0.002637
     6  C   -0.003165   0.002637  -0.013221   0.037318  -0.003165  -0.000087
     7  H   -0.015162   0.000199  -0.000000   0.001671   0.000019  -0.000000
     8  H    0.000199  -0.004899   0.000002  -0.001271   0.000000   0.000000
     9  H   -0.000000   0.000002  -0.015162  -0.001024   0.000000   0.000000
    10  C    0.001671  -0.001271  -0.001024   0.719237   0.018190   0.000533
    11  H    0.000019   0.000000   0.000000   0.018190  -0.015162   0.000002
    12  H   -0.000000   0.000000   0.000000   0.000533   0.000002  -0.004899
    13  C   -0.000072   0.000533   0.018190  -0.073242  -0.001024  -0.001271
    14  H    0.000000  -0.000000   0.000019  -0.000072  -0.000000   0.000199
    15  C   -0.002653   0.000011   0.000149  -0.293878  -0.001925  -0.004255
    16  C    0.002800  -0.004255  -0.001925   0.038048   0.000149   0.000011
    17  H    0.000002   0.000132   0.000199   0.000362  -0.000000   0.000000
    18  C    0.018190  -0.008107  -0.000072  -0.165320   0.001671   0.000362
              13         14         15         16         17         18
     1  C    0.044476  -0.001932   0.196225  -0.014914   0.000011   0.038040
     2  H    0.000362   0.000002   0.010059   0.000003   0.000000  -0.001269
     3  C   -0.165320   0.018190  -0.129534   0.044487  -0.001269  -0.073181
     4  C   -0.129460   0.000149  -0.014914   0.196225  -0.004261  -0.293768
     5  C    0.037318  -0.003165   0.041510  -0.027488   0.002636  -0.073367
     6  C   -0.073456  -0.013214  -0.027488   0.041510  -0.000085   0.037276
     7  H   -0.000072   0.000000  -0.002653   0.002800   0.000002   0.018190
     8  H    0.000533  -0.000000   0.000011  -0.004255   0.000132  -0.008107
     9  H    0.018190   0.000019   0.000149  -0.001925   0.000199  -0.000072
    10  C   -0.073242  -0.000072  -0.293878   0.038048   0.000362  -0.165320
    11  H   -0.001024  -0.000000  -0.001925   0.000149  -0.000000   0.001671
    12  H   -0.001271   0.000199  -0.004255   0.000011   0.000000   0.000362
    13  C    0.719237   0.001671   0.038048  -0.293878  -0.008095   0.153850
    14  H    0.001671  -0.015162   0.002800  -0.002653   0.000000  -0.001024
    15  C    0.038048   0.002800   0.237386  -0.020045   0.000003   0.044487
    16  C   -0.293878  -0.002653  -0.020045   0.237386   0.010059  -0.129534
    17  H   -0.008095   0.000000   0.000003   0.010059  -0.004902   0.000532
    18  C    0.153850  -0.001024   0.044487  -0.129534   0.000532   0.719104
 Mulliken charges and spin densities:
               1          2
     1  C   -0.425460   0.075905
     2  H    0.123418  -0.004678
     3  C    0.022848   0.267868
     4  C   -0.425460   0.075905
     5  C   -0.195307  -0.149882
     6  C   -0.195307  -0.149882
     7  H    0.126906  -0.014195
     8  H    0.123425  -0.004675
     9  H    0.126904  -0.014195
    10  C    0.022779   0.267867
    11  H    0.126904  -0.014195
    12  H    0.123425  -0.004675
    13  C    0.022779   0.267867
    14  H    0.126906  -0.014195
    15  C   -0.425513   0.075985
    16  C   -0.425513   0.075985
    17  H    0.123418  -0.004678
    18  C    0.022848   0.267868
 Sum of Mulliken charges =  -1.00000   1.00000
 Mulliken charges and spin densities with hydrogens summed into heavy atoms:
               1          2
     1  C   -0.302035   0.071230
     3  C    0.149754   0.253673
     4  C   -0.302035   0.071230
     5  C   -0.195307  -0.149882
     6  C   -0.195307  -0.149882
    10  C    0.149683   0.253672
    13  C    0.149683   0.253672
    15  C   -0.302095   0.071306
    16  C   -0.302095   0.071306
    18  C    0.149754   0.253673
 Electronic spatial extent (au):  <R**2>=           1338.0147
 Charge=             -1.0000 electrons
 Dipole moment (field-independent basis, Debye):
    X=              0.0000    Y=             -0.0000    Z=             -0.0000  Tot=              0.0000
 Quadrupole moment (field-independent basis, Debye-Ang):
   XX=            -74.1216   YY=            -69.4589   ZZ=            -79.2563
   XY=             -0.0129   XZ=              4.6804   YZ=              3.2384
 Traceless Quadrupole moment (field-independent basis, Debye-Ang):
   XX=              0.1573   YY=              4.8200   ZZ=             -4.9774
   XY=             -0.0129   XZ=              4.6804   YZ=              3.2384
 Octapole moment (field-independent basis, Debye-Ang**2):
  XXX=              0.0000  YYY=             -0.0000  ZZZ=              0.0000  XYY=             -0.0000
  XXY=              0.0000  XXZ=             -0.0000  XZZ=             -0.0000  YZZ=             -0.0000
  YYZ=              0.0000  XYZ=              0.0000
 Hexadecapole moment (field-independent basis, Debye-Ang**3):
 XXXX=           -496.5415 YYYY=           -573.8519 ZZZZ=          -1210.2488 XXXY=           -136.7437
 XXXZ=            266.6049 YYYX=           -118.5488 YYYZ=             45.7013 ZZZX=            233.5014
 ZZZY=             59.6461 XXYY=           -168.9698 XXZZ=           -283.0504 YYZZ=           -296.4223
 XXYZ=              2.3195 YYXZ=             80.7788 ZZXY=            -39.9381
 N-N= 4.567189357585D+02 E-N=-1.818164249523D+03  KE= 3.823560498648D+02
 Symmetry AG   KE= 1.923822843111D+02
 Symmetry AU   KE= 1.899737655537D+02
 Symmetry AG   SP= 1.000000000000D+00
 Symmetry AU   SP= 1.280052540403D-14
                          Isotropic Fermi Contact Couplings
        Atom                 a.u.       MegaHertz       Gauss      10(-4) cm-1
     1  C(13)             -0.00002      -0.01716      -0.00612      -0.00572
     2  H(1)              -0.00116      -5.16758      -1.84392      -1.72372
     3  C(13)              0.02370      26.63960       9.50567       8.88601
     4  C(13)             -0.00002      -0.01716      -0.00612      -0.00572
     5  C(13)             -0.01304     -14.65690      -5.22995      -4.88902
     6  C(13)             -0.01304     -14.65690      -5.22995      -4.88902
     7  H(1)              -0.00375     -16.75889      -5.97999      -5.59016
     8  H(1)              -0.00116      -5.16370      -1.84254      -1.72242
     9  H(1)              -0.00375     -16.75803      -5.97968      -5.58988
    10  C(13)              0.02369      26.63641       9.50453       8.88495
    11  H(1)              -0.00375     -16.75803      -5.97968      -5.58988
    12  H(1)              -0.00116      -5.16370      -1.84254      -1.72242
    13  C(13)              0.02369      26.63641       9.50453       8.88495
    14  H(1)              -0.00375     -16.75889      -5.97999      -5.59016
    15  C(13)             -0.00001      -0.00929      -0.00331      -0.00310
    16  C(13)             -0.00001      -0.00929      -0.00331      -0.00310
    17  H(1)              -0.00116      -5.16758      -1.84392      -1.72372
    18  C(13)              0.02370      26.63960       9.50567       8.88601
 --------------------------------------------------------
       Center         ----  Spin Dipole Couplings  ----
                      3XX-RR        3YY-RR        3ZZ-RR
 --------------------------------------------------------
     1   Atom        0.034779     -0.013009     -0.021771
     2   Atom        0.000716      0.001273     -0.001989
     3   Atom        0.137920     -0.057091     -0.080830
     4   Atom        0.034779     -0.013009     -0.021771
     5   Atom       -0.025743      0.007108      0.018635
     6   Atom       -0.025743      0.007108      0.018635
     7   Atom       -0.004151      0.012034     -0.007883
     8   Atom       -0.002700     -0.003370      0.006069
     9   Atom       -0.003190      0.013336     -0.010146
    10   Atom        0.137243     -0.058088     -0.079155
    11   Atom       -0.003190      0.013336     -0.010146
    12   Atom       -0.002700     -0.003370      0.006069
    13   Atom        0.137243     -0.058088     -0.079155
    14   Atom       -0.004151      0.012034     -0.007883
    15   Atom        0.032686     -0.015935     -0.016752
    16   Atom        0.032686     -0.015935     -0.016752
    17   Atom        0.000716      0.001273     -0.001989
    18   Atom        0.137920     -0.057091     -0.080830
 --------------------------------------------------------
                        XY            XZ            YZ
 --------------------------------------------------------
     1   Atom       -0.031307      0.027069     -0.016887
     2   Atom        0.003910     -0.002622     -0.004795
     3   Atom       -0.134681      0.112808     -0.058019
     4   Atom       -0.031307      0.027069     -0.016887
     5   Atom        0.025217     -0.024538      0.008210
     6   Atom        0.025217     -0.024538      0.008210
     7   Atom        0.003100      0.007500      0.010246
     8   Atom       -0.002042     -0.001738      0.003637
     9   Atom        0.004770      0.007253      0.007882
    10   Atom       -0.135930      0.112969     -0.056216
    11   Atom        0.004770      0.007253      0.007882
    12   Atom       -0.002042     -0.001738      0.003637
    13   Atom       -0.135930      0.112969     -0.056216
    14   Atom        0.003100      0.007500      0.010246
    15   Atom       -0.035073      0.027638     -0.011608
    16   Atom       -0.035073      0.027638     -0.011608
    17   Atom        0.003910     -0.002622     -0.004795
    18   Atom       -0.134681      0.112808     -0.058019
 --------------------------------------------------------


 ---------------------------------------------------------------------------------
              Anisotropic Spin Dipole Couplings in Principal Axis System
 ---------------------------------------------------------------------------------

       Atom             a.u.   MegaHertz   Gauss  10(-4) cm-1        Axes

              Baa    -0.0351    -4.707    -1.679    -1.570 -0.1046  0.5065  0.8559
     1 C(13)  Bbb    -0.0272    -3.651    -1.303    -1.218  0.5435  0.7498 -0.3773
              Bcc     0.0623     8.357     2.982     2.788  0.8329 -0.4257  0.3538
 
              Baa    -0.0054    -2.896    -1.033    -0.966 -0.0364  0.5955  0.8025
     2 H(1)   Bbb    -0.0024    -1.278    -0.456    -0.426  0.8330 -0.4256  0.3536
              Bcc     0.0078     4.174     1.489     1.392  0.5521  0.6813 -0.4806
 
              Baa    -0.1288   -17.289    -6.169    -5.767 -0.2596  0.2639  0.9290
     3 C(13)  Bbb    -0.1258   -16.883    -6.024    -5.632  0.4887  0.8656 -0.1093
              Bcc     0.2547    34.172    12.193    11.399  0.8329 -0.4257  0.3537
 
              Baa    -0.0351    -4.707    -1.679    -1.570 -0.1046  0.5065  0.8559
     4 C(13)  Bbb    -0.0272    -3.651    -1.303    -1.218  0.5435  0.7498 -0.3773
              Bcc     0.0623     8.357     2.982     2.788  0.8329 -0.4257  0.3538
 
              Baa    -0.0490    -6.582    -2.349    -2.195  0.8329 -0.4257  0.3536
     5 C(13)  Bbb     0.0189     2.540     0.906     0.847  0.2899  0.8799  0.3765
              Bcc     0.0301     4.042     1.442     1.348 -0.4714 -0.2110  0.8563
 
              Baa    -0.0490    -6.582    -2.349    -2.195  0.8329 -0.4257  0.3536
     6 C(13)  Bbb     0.0189     2.540     0.906     0.847  0.2899  0.8799  0.3765
              Bcc     0.0301     4.042     1.442     1.348 -0.4714 -0.2110  0.8563
 
              Baa    -0.0154    -8.217    -2.932    -2.741 -0.4861 -0.2570  0.8353
     7 H(1)   Bbb    -0.0025    -1.360    -0.485    -0.454  0.8329 -0.4256  0.3537
              Bcc     0.0180     9.577     3.417     3.195  0.2646  0.8676  0.4209
 
              Baa    -0.0054    -2.894    -1.033    -0.965  0.5090  0.8398 -0.1887
     8 H(1)   Bbb    -0.0024    -1.278    -0.456    -0.426  0.8330 -0.4254  0.3538
              Bcc     0.0078     4.172     1.489     1.392 -0.2168  0.3373  0.9161
 
              Baa    -0.0154    -8.218    -2.932    -2.741 -0.4554 -0.1644  0.8750
     9 H(1)   Bbb    -0.0025    -1.360    -0.485    -0.454  0.8330 -0.4256  0.3536
              Bcc     0.0180     9.578     3.418     3.195  0.3143  0.8899  0.3308
 
              Baa    -0.1288   -17.288    -6.169    -5.767  0.5532  0.6280 -0.5474
    10 C(13)  Bbb    -0.1258   -16.883    -6.024    -5.632  0.0109  0.6516  0.7585
              Bcc     0.2546    34.171    12.193    11.398  0.8330 -0.4256  0.3536
 
              Baa    -0.0154    -8.218    -2.932    -2.741 -0.4554 -0.1644  0.8750
    11 H(1)   Bbb    -0.0025    -1.360    -0.485    -0.454  0.8330 -0.4256  0.3536
              Bcc     0.0180     9.578     3.418     3.195  0.3143  0.8899  0.3308
 
              Baa    -0.0054    -2.894    -1.033    -0.965  0.5090  0.8398 -0.1887
    12 H(1)   Bbb    -0.0024    -1.278    -0.456    -0.426  0.8330 -0.4254  0.3538
              Bcc     0.0078     4.172     1.489     1.392 -0.2168  0.3373  0.9161
 
              Baa    -0.1288   -17.288    -6.169    -5.767  0.5532  0.6280 -0.5474
    13 C(13)  Bbb    -0.1258   -16.883    -6.024    -5.632  0.0109  0.6516  0.7585
              Bcc     0.2546    34.171    12.193    11.398  0.8330 -0.4256  0.3536
 
              Baa    -0.0154    -8.217    -2.932    -2.741 -0.4861 -0.2570  0.8353
    14 H(1)   Bbb    -0.0025    -1.360    -0.485    -0.454  0.8329 -0.4256  0.3537
              Bcc     0.0180     9.577     3.417     3.195  0.2646  0.8676  0.4209
 
              Baa    -0.0351    -4.711    -1.681    -1.571  0.5321  0.7915 -0.3008
    15 C(13)  Bbb    -0.0272    -3.655    -1.304    -1.219 -0.1518  0.4386  0.8857
              Bcc     0.0623     8.365     2.985     2.790  0.8330 -0.4257  0.3535
 
              Baa    -0.0351    -4.711    -1.681    -1.571  0.5321  0.7915 -0.3008
    16 C(13)  Bbb    -0.0272    -3.655    -1.304    -1.219 -0.1518  0.4386  0.8857
              Bcc     0.0623     8.365     2.985     2.790  0.8330 -0.4257  0.3535
 
              Baa    -0.0054    -2.896    -1.033    -0.966 -0.0364  0.5955  0.8025
    17 H(1)   Bbb    -0.0024    -1.278    -0.456    -0.426  0.8330 -0.4256  0.3536
              Bcc     0.0078     4.174     1.489     1.392  0.5521  0.6813 -0.4806
 
              Baa    -0.1288   -17.289    -6.169    -5.767 -0.2596  0.2639  0.9290
    18 C(13)  Bbb    -0.1258   -16.883    -6.024    -5.632  0.4887  0.8656 -0.1093
              Bcc     0.2547    34.172    12.193    11.399  0.8329 -0.4257  0.3537
 

 ---------------------------------------------------------------------------------

 1\1\GINC-RHEL-HPC\SP\UB3LYP\6-31+G(d)\C10H8(1-,2)\WANGZHE\03-Oct-2023\
 0\\# ub3lyp/6-31+G*\\title\\-1,2\C,0,-0.942979,0.110042,2.353537\H,0,-
 1.955254,-1.810606,2.426277\C,0,-0.180275,0.972453,1.595413\C,0,0.9429
 79,-0.110042,-2.353537\C,0,-0.207989,-0.631167,-0.270002\C,0,0.207989,
 0.631167,0.270002\H,0,-0.135911,-1.930266,-2.003343\H,0,1.232581,-0.38
 3902,-3.36483\H,0,1.3088,2.455159,-0.127544\C,0,-0.994329,-1.498197,0.
 538585\H,0,-1.3088,-2.455159,0.127544\H,0,-1.232581,0.383902,3.36483\C
 ,0,0.994329,1.498197,-0.538585\H,0,0.135911,1.930266,2.003343\C,0,-1.3
 54173,-1.138108,1.819672\C,0,1.354173,1.138108,-1.819672\H,0,1.955254,
 1.810606,-2.426277\C,0,0.180275,-0.972453,-1.595413\\Version=ES64L-G16
 RevB.01\State=2-AG\HF=-385.8930382\S2=0.759119\S2-1=0.\S2A=0.750065\RM
 SD=3.773e-09\Dipole=0.,0.,0.\Quadrupole=0.1169838,3.5835722,-3.700556,
 -0.0096102,3.4797668,2.407693\PG=CI [X(C10H8)]\\@


 BLACK HOLES SUCK.
 Job cpu time:       0 days  0 hours  1 minutes 19.4 seconds.
 Elapsed time:       0 days  0 hours  0 minutes 10.9 seconds.
 File lengths (MBytes):  RWF=     32 Int=      0 D2E=      0 Chk=      4 Scr=      1
 Normal termination of Gaussian 16 at Tue Oct  3 11:10:39 2023.
