 Entering Gaussian System, Link 0=g16
 Initial command:
 /usr/local/gaussian16b01/g16/l1.exe "/scr/Gau-9904.inp" -scrdir="/scr/"
 Entering Link 1 = /usr/local/gaussian16b01/g16/l1.exe PID=      9905.
  
 Copyright (c) 1988-2017, Gaussian, Inc.  All Rights Reserved.
  
 This is part of the Gaussian(R) 16 program.  It is based on
 the Gaussian(R) 09 system (copyright 2009, Gaussian, Inc.),
 the Gaussian(R) 03 system (copyright 2003, Gaussian, Inc.),
 the Gaussian(R) 98 system (copyright 1998, Gaussian, Inc.),
 the Gaussian(R) 94 system (copyright 1995, Gaussian, Inc.),
 the Gaussian 92(TM) system (copyright 1992, Gaussian, Inc.),
 the Gaussian 90(TM) system (copyright 1990, Gaussian, Inc.),
 the Gaussian 88(TM) system (copyright 1988, Gaussian, Inc.),
 the Gaussian 86(TM) system (copyright 1986, Carnegie Mellon
 University), and the Gaussian 82(TM) system (copyright 1983,
 Carnegie Mellon University). Gaussian is a federally registered
 trademark of Gaussian, Inc.
  
 This software contains proprietary and confidential information,
 including trade secrets, belonging to Gaussian, Inc.
  
 This software is provided under written license and may be
 used, copied, transmitted, or stored only in accord with that
 written license.
  
 The following legend is applicable only to US Government
 contracts under FAR:
  
                    RESTRICTED RIGHTS LEGEND
  
 Use, reproduction and disclosure by the US Government is
 subject to restrictions as set forth in subparagraphs (a)
 and (c) of the Commercial Computer Software - Restricted
 Rights clause in FAR 52.227-19.
  
 Gaussian, Inc.
 340 Quinnipiac St., Bldg. 40, Wallingford CT 06492
  
  
 ---------------------------------------------------------------
 Warning -- This program may not be used in any manner that
 competes with the business of Gaussian, Inc. or will provide
 assistance to any competitor of Gaussian, Inc.  The licensee
 of this program is prohibited from giving any competitor of
 Gaussian, Inc. access to this program.  By using this program,
 the user acknowledges that Gaussian, Inc. is engaged in the
 business of creating and licensing software in the field of
 computational chemistry and represents and warrants to the
 licensee that it is not a competitor of Gaussian, Inc. and that
 it will not use this program in any manner prohibited above.
 ---------------------------------------------------------------
  

 Cite this work as:
 Gaussian 16, Revision B.01,
 M. J. Frisch, G. W. Trucks, H. B. Schlegel, G. E. Scuseria, 
 M. A. Robb, J. R. Cheeseman, G. Scalmani, V. Barone, 
 G. A. Petersson, H. Nakatsuji, X. Li, M. Caricato, A. V. Marenich, 
 J. Bloino, B. G. Janesko, R. Gomperts, B. Mennucci, H. P. Hratchian, 
 J. V. Ortiz, A. F. Izmaylov, J. L. Sonnenberg, D. Williams-Young, 
 F. Ding, F. Lipparini, F. Egidi, J. Goings, B. Peng, A. Petrone, 
 T. Henderson, D. Ranasinghe, V. G. Zakrzewski, J. Gao, N. Rega, 
 G. Zheng, W. Liang, M. Hada, M. Ehara, K. Toyota, R. Fukuda, 
 J. Hasegawa, M. Ishida, T. Nakajima, Y. Honda, O. Kitao, H. Nakai, 
 T. Vreven, K. Throssell, J. A. Montgomery, Jr., J. E. Peralta, 
 F. Ogliaro, M. J. Bearpark, J. J. Heyd, E. N. Brothers, K. N. Kudin, 
 V. N. Staroverov, T. A. Keith, R. Kobayashi, J. Normand, 
 K. Raghavachari, A. P. Rendell, J. C. Burant, S. S. Iyengar, 
 J. Tomasi, M. Cossi, J. M. Millam, M. Klene, C. Adamo, R. Cammi, 
 J. W. Ochterski, R. L. Martin, K. Morokuma, O. Farkas, 
 J. B. Foresman, and D. J. Fox, Gaussian, Inc., Wallingford CT, 2016.
 
 ******************************************
 Gaussian 16:  ES64L-G16RevB.01 20-Dec-2017
                 3-Oct-2023 
 ******************************************
 %nprocshared=16
 Will use up to   16 processors via shared memory.
 %mem=10GB
 ---------------------------
 # opt freq ub3lyp/6-31+g(d)
 ---------------------------
 1/18=20,19=15,26=3,38=1/1,3;
 2/9=110,12=2,17=6,18=5,40=1/2;
 3/5=1,6=6,7=11,11=2,25=1,30=1,71=1,74=-5,116=2/1,2,3;
 4//1;
 5/5=2,38=5/2;
 6/7=2,8=2,9=2,10=2,28=1/1;
 7//1,2,3,16;
 1/18=20,19=15,26=3/3(2);
 2/9=110/2;
 99//99;
 2/9=110/2;
 3/5=1,6=6,7=11,11=2,25=1,30=1,71=1,74=-5,116=2/1,2,3;
 4/5=5,16=3,69=1/1;
 5/5=2,38=5/2;
 7//1,2,3,16;
 1/18=20,19=15,26=3/3(-5);
 2/9=110/2;
 6/7=2,8=2,9=2,10=2,19=2,28=1/1;
 99/9=1/99;
 -----
 title
 -----
 Symbolic Z-matrix:
 Charge = -1 Multiplicity = 2
 C                    -2.96293  -1.37776   2.34412 
 H                    -3.91359  -3.24558   2.36511 
 C                    -2.19934  -0.51291   1.59119 
 C                    -1.08607  -1.59874  -2.34412 
 C                    -2.23158  -2.11439  -0.26514 
 C                    -1.81742  -0.86211   0.26514 
 H                    -2.14645  -3.30749  -1.93535 
 H                    -0.80423  -1.83888  -3.25105 
 H                    -0.76084   0.83759  -0.16848 
 C                    -3.0151   -2.98739   0.54127 
 H                    -3.28816  -3.81409   0.16848 
 H                    -3.24477  -1.13762   3.25105 
 C                    -1.0339    0.01089  -0.54127 
 H                    -1.90255   0.33099   1.93535 
 C                    -3.3759   -2.62057   1.81756 
 C                    -0.6731   -0.35593  -1.81756 
 H                    -0.13541   0.26908  -2.36511 
 C                    -1.84966  -2.46359  -1.59119 
 

 GradGradGradGradGradGradGradGradGradGradGradGradGradGradGradGradGradGrad
 Berny optimization.
 Initialization pass.
                           ----------------------------
                           !    Initial Parameters    !
                           ! (Angstroms and Degrees)  !
 --------------------------                            --------------------------
 ! Name  Definition              Value          Derivative Info.                !
 --------------------------------------------------------------------------------
 ! R1    R(1,3)                  1.3777         estimate D2E/DX2                !
 ! R2    R(1,12)                 0.9796         estimate D2E/DX2                !
 ! R3    R(1,15)                 1.4115         estimate D2E/DX2                !
 ! R4    R(2,15)                 0.9897         estimate D2E/DX2                !
 ! R5    R(3,6)                  1.4234         estimate D2E/DX2                !
 ! R6    R(3,14)                 0.9585         estimate D2E/DX2                !
 ! R7    R(4,8)                  0.9796         estimate D2E/DX2                !
 ! R8    R(4,16)                 1.4115         estimate D2E/DX2                !
 ! R9    R(4,18)                 1.3777         estimate D2E/DX2                !
 ! R10   R(5,6)                  1.4216         estimate D2E/DX2                !
 ! R11   R(5,10)                 1.4235         estimate D2E/DX2                !
 ! R12   R(5,18)                 1.4234         estimate D2E/DX2                !
 ! R13   R(6,13)                 1.4235         estimate D2E/DX2                !
 ! R14   R(7,18)                 0.9585         estimate D2E/DX2                !
 ! R15   R(9,13)                 0.9471         estimate D2E/DX2                !
 ! R16   R(10,11)                0.9471         estimate D2E/DX2                !
 ! R17   R(10,15)                1.3761         estimate D2E/DX2                !
 ! R18   R(13,16)                1.3761         estimate D2E/DX2                !
 ! R19   R(16,17)                0.9897         estimate D2E/DX2                !
 ! A1    A(3,1,12)             120.7677         estimate D2E/DX2                !
 ! A2    A(3,1,15)             120.7314         estimate D2E/DX2                !
 ! A3    A(12,1,15)            118.4922         estimate D2E/DX2                !
 ! A4    A(1,3,6)              120.2545         estimate D2E/DX2                !
 ! A5    A(1,3,14)             121.8769         estimate D2E/DX2                !
 ! A6    A(6,3,14)             117.8667         estimate D2E/DX2                !
 ! A7    A(8,4,16)             118.4922         estimate D2E/DX2                !
 ! A8    A(8,4,18)             120.7677         estimate D2E/DX2                !
 ! A9    A(16,4,18)            120.7314         estimate D2E/DX2                !
 ! A10   A(6,5,10)             119.2935         estimate D2E/DX2                !
 ! A11   A(6,5,18)             119.0407         estimate D2E/DX2                !
 ! A12   A(10,5,18)            121.6658         estimate D2E/DX2                !
 ! A13   A(3,6,5)              119.0407         estimate D2E/DX2                !
 ! A14   A(3,6,13)             121.6658         estimate D2E/DX2                !
 ! A15   A(5,6,13)             119.2935         estimate D2E/DX2                !
 ! A16   A(5,10,11)            118.1016         estimate D2E/DX2                !
 ! A17   A(5,10,15)            120.4139         estimate D2E/DX2                !
 ! A18   A(11,10,15)           121.4774         estimate D2E/DX2                !
 ! A19   A(6,13,9)             118.1016         estimate D2E/DX2                !
 ! A20   A(6,13,16)            120.4139         estimate D2E/DX2                !
 ! A21   A(9,13,16)            121.4774         estimate D2E/DX2                !
 ! A22   A(1,15,2)             120.5692         estimate D2E/DX2                !
 ! A23   A(1,15,10)            120.264          estimate D2E/DX2                !
 ! A24   A(2,15,10)            119.1577         estimate D2E/DX2                !
 ! A25   A(4,16,13)            120.264          estimate D2E/DX2                !
 ! A26   A(4,16,17)            120.5692         estimate D2E/DX2                !
 ! A27   A(13,16,17)           119.1577         estimate D2E/DX2                !
 ! A28   A(4,18,5)             120.2545         estimate D2E/DX2                !
 ! A29   A(4,18,7)             121.8769         estimate D2E/DX2                !
 ! A30   A(5,18,7)             117.8667         estimate D2E/DX2                !
 ! D1    D(12,1,3,6)          -178.7927         estimate D2E/DX2                !
 ! D2    D(12,1,3,14)            1.7072         estimate D2E/DX2                !
 ! D3    D(15,1,3,6)             0.1255         estimate D2E/DX2                !
 ! D4    D(15,1,3,14)         -179.3746         estimate D2E/DX2                !
 ! D5    D(3,1,15,2)           179.1273         estimate D2E/DX2                !
 ! D6    D(3,1,15,10)            0.2348         estimate D2E/DX2                !
 ! D7    D(12,1,15,2)           -1.9304         estimate D2E/DX2                !
 ! D8    D(12,1,15,10)         179.1771         estimate D2E/DX2                !
 ! D9    D(1,3,6,5)             -0.2035         estimate D2E/DX2                !
 ! D10   D(1,3,6,13)           179.7282         estimate D2E/DX2                !
 ! D11   D(14,3,6,5)           179.3163         estimate D2E/DX2                !
 ! D12   D(14,3,6,13)           -0.752          estimate D2E/DX2                !
 ! D13   D(8,4,16,13)         -179.1771         estimate D2E/DX2                !
 ! D14   D(8,4,16,17)            1.9304         estimate D2E/DX2                !
 ! D15   D(18,4,16,13)          -0.2348         estimate D2E/DX2                !
 ! D16   D(18,4,16,17)        -179.1273         estimate D2E/DX2                !
 ! D17   D(8,4,18,5)           178.7927         estimate D2E/DX2                !
 ! D18   D(8,4,18,7)            -1.7072         estimate D2E/DX2                !
 ! D19   D(16,4,18,5)           -0.1255         estimate D2E/DX2                !
 ! D20   D(16,4,18,7)          179.3746         estimate D2E/DX2                !
 ! D21   D(10,5,6,3)            -0.0666         estimate D2E/DX2                !
 ! D22   D(10,5,6,13)          180.0            estimate D2E/DX2                !
 ! D23   D(18,5,6,3)           180.0            estimate D2E/DX2                !
 ! D24   D(18,5,6,13)            0.0666         estimate D2E/DX2                !
 ! D25   D(6,5,10,11)          179.4728         estimate D2E/DX2                !
 ! D26   D(6,5,10,15)            0.4239         estimate D2E/DX2                !
 ! D27   D(18,5,10,11)          -0.5956         estimate D2E/DX2                !
 ! D28   D(18,5,10,15)        -179.6445         estimate D2E/DX2                !
 ! D29   D(6,5,18,4)             0.2035         estimate D2E/DX2                !
 ! D30   D(6,5,18,7)          -179.3163         estimate D2E/DX2                !
 ! D31   D(10,5,18,4)         -179.7282         estimate D2E/DX2                !
 ! D32   D(10,5,18,7)            0.752          estimate D2E/DX2                !
 ! D33   D(3,6,13,9)             0.5956         estimate D2E/DX2                !
 ! D34   D(3,6,13,16)          179.6445         estimate D2E/DX2                !
 ! D35   D(5,6,13,9)          -179.4728         estimate D2E/DX2                !
 ! D36   D(5,6,13,16)           -0.4239         estimate D2E/DX2                !
 ! D37   D(5,10,15,1)           -0.5092         estimate D2E/DX2                !
 ! D38   D(5,10,15,2)         -179.4172         estimate D2E/DX2                !
 ! D39   D(11,10,15,1)        -179.5254         estimate D2E/DX2                !
 ! D40   D(11,10,15,2)           1.5665         estimate D2E/DX2                !
 ! D41   D(6,13,16,4)            0.5092         estimate D2E/DX2                !
 ! D42   D(6,13,16,17)         179.4172         estimate D2E/DX2                !
 ! D43   D(9,13,16,4)          179.5254         estimate D2E/DX2                !
 ! D44   D(9,13,16,17)          -1.5665         estimate D2E/DX2                !
 --------------------------------------------------------------------------------
 Trust Radius=3.00D-01 FncErr=1.00D-07 GrdErr=1.00D-06 EigMax=2.50D+02 EigMin=1.00D-04
 Number of steps in this run=    103 maximum allowed number of steps=    108.
 GradGradGradGradGradGradGradGradGradGradGradGradGradGradGradGradGradGrad

                          Input orientation:                          
 ---------------------------------------------------------------------
 Center     Atomic      Atomic             Coordinates (Angstroms)
 Number     Number       Type             X           Y           Z
 ---------------------------------------------------------------------
      1          6           0       -2.962927   -1.377762    2.344123
      2          1           0       -3.913589   -3.245576    2.365112
      3          6           0       -2.199338   -0.512910    1.591185
      4          6           0       -1.086073   -1.598738   -2.344123
      5          6           0       -2.231579   -2.114387   -0.265138
      6          6           0       -1.817421   -0.862113    0.265138
      7          1           0       -2.146450   -3.307487   -1.935351
      8          1           0       -0.804233   -1.838882   -3.251047
      9          1           0       -0.760845    0.837587   -0.168478
     10          6           0       -3.015098   -2.987394    0.541270
     11          1           0       -3.288155   -3.814087    0.168478
     12          1           0       -3.244767   -1.137618    3.251047
     13          6           0       -1.033902    0.010894   -0.541270
     14          1           0       -1.902550    0.330987    1.935351
     15          6           0       -3.375902   -2.620570    1.817559
     16          6           0       -0.673098   -0.355930   -1.817559
     17          1           0       -0.135411    0.269076   -2.365112
     18          6           0       -1.849662   -2.463590   -1.591185
 ---------------------------------------------------------------------
                    Distance matrix (angstroms):
                    1          2          3          4          5
     1  C    0.000000
     2  H    2.095931   0.000000
     3  C    1.377662   3.317390   0.000000
     4  C    5.054807   5.734441   4.231434   0.000000
     5  C    2.808154   3.320687   2.451877   2.429045   0.000000
     6  C    2.429045   3.805877   1.423448   2.808154   1.421586
     7  H    4.764910   4.649795   4.499879   2.052150   2.054348
     8  H    6.014858   6.571767   5.210732   0.979598   3.320974
     9  H    4.008754   5.747268   2.643770   3.282512   3.299478
    10  C    2.417419   2.049474   2.809067   3.738315   1.423495
    11  H    3.282512   2.353630   3.755980   4.008754   2.047769
    12  H    0.979598   2.382370   2.058718   6.014858   3.787371
    13  C    3.738315   5.229173   2.485956   2.417419   2.455096
    14  H    2.052150   4.125624   0.958486   4.764910   3.306095
    15  C    1.411520   0.989723   2.424413   4.858710   2.429676
    16  C    4.858710   6.028729   3.738127   1.411520   2.816211
    17  H    5.734441   7.000173   4.530296   2.095931   3.805877
    18  C    4.231434   4.530296   3.748987   1.377662   1.423448
                    6          7          8          9         10
     6  C    0.000000
     7  H    3.306095   0.000000
     8  H    3.787371   2.385247   0.000000
     9  H    2.047769   4.714168   4.082597   0.000000
    10  C    2.455096   2.643986   4.537474   4.496207   0.000000
    11  H    3.299478   2.446677   4.665239   5.304612   0.947078
    12  H    3.320974   5.728294   6.980344   4.665239   3.288968
    13  C    1.423495   3.767343   3.288968   0.947078   3.753234
    14  H    2.054348   5.317923   5.728294   2.446677   3.767343
    15  C    2.816211   4.008459   5.737185   4.768828   1.376101
    16  C    2.429676   3.300959   2.066695   2.037561   4.239534
    17  H    3.320687   4.125624   2.382370   2.353630   5.229173
    18  C    2.451877   0.958486   2.058718   3.755980   2.485956
                   11         12         13         14         15
    11  H    0.000000
    12  H    4.082597   0.000000
    13  C    4.496207   4.537474   0.000000
    14  H    4.714168   2.385247   2.643986   0.000000
    15  C    2.037561   2.066695   4.239534   3.300959   0.000000
    16  C    4.768828   5.737185   1.376101   4.008459   5.064369
    17  H    5.747268   6.571767   2.049474   4.649795   6.028729
    18  C    2.643770   5.210732   2.809067   4.499879   3.738127
                   16         17         18
    16  C    0.000000
    17  H    0.989723   0.000000
    18  C    2.424413   3.317390   0.000000
 Stoichiometry    C10H8(1-,2)
 Framework group  CI[X(C10H8)]
 Deg. of freedom    24
 Full point group                 CI      NOp   2
 Largest Abelian subgroup         CI      NOp   2
 Largest concise Abelian subgroup CI      NOp   2
                         Standard orientation:                         
 ---------------------------------------------------------------------
 Center     Atomic      Atomic             Coordinates (Angstroms)
 Number     Number       Type             X           Y           Z
 ---------------------------------------------------------------------
      1          6           0       -0.938427    0.110488    2.344123
      2          1           0       -1.889089   -1.757326    2.365112
      3          6           0       -0.174838    0.975340    1.591185
      4          6           0        0.938427   -0.110488   -2.344123
      5          6           0       -0.207079   -0.626137   -0.265138
      6          6           0        0.207079    0.626137    0.265138
      7          1           0       -0.121950   -1.819237   -1.935351
      8          1           0        1.220267   -0.350632   -3.251047
      9          1           0        1.263655    2.325837   -0.168478
     10          6           0       -0.990598   -1.499144    0.541270
     11          1           0       -1.263655   -2.325837    0.168478
     12          1           0       -1.220267    0.350632    3.251047
     13          6           0        0.990598    1.499144   -0.541270
     14          1           0        0.121950    1.819237    1.935351
     15          6           0       -1.351402   -1.132320    1.817559
     16          6           0        1.351402    1.132320   -1.817559
     17          1           0        1.889089    1.757326   -2.365112
     18          6           0        0.174838   -0.975340   -1.591185
 ---------------------------------------------------------------------
 Rotational constants (GHZ):           3.1816529           1.2417012           0.8931421
 Standard basis: 6-31+G(d) (6D, 7F)
 There are   103 symmetry adapted cartesian basis functions of AG  symmetry.
 There are   103 symmetry adapted cartesian basis functions of AU  symmetry.
 There are   103 symmetry adapted basis functions of AG  symmetry.
 There are   103 symmetry adapted basis functions of AU  symmetry.
   206 basis functions,   352 primitive gaussians,   206 cartesian basis functions
    35 alpha electrons       34 beta electrons
       nuclear repulsion energy       462.9367453971 Hartrees.
 NAtoms=   18 NActive=   18 NUniq=    9 SFac= 4.00D+00 NAtFMM=   60 NAOKFM=F Big=F
 Integral buffers will be    131072 words long.
 Raffenetti 2 integral format.
 Two-electron integral symmetry is turned on.
 One-electron integrals computed using PRISM.
 NBasis=   206 RedAO= T EigKep=  1.37D-06  NBF=   103   103
 NBsUse=   205 1.00D-06 EigRej=  7.47D-07 NBFU=   102   103
 ExpMin= 4.38D-02 ExpMax= 3.05D+03 ExpMxC= 4.57D+02 IAcc=3 IRadAn=         5 AccDes= 0.00D+00
 Harris functional with IExCor=  402 and IRadAn=       5 diagonalized for initial guess.
 HarFok:  IExCor=  402 AccDes= 0.00D+00 IRadAn=         5 IDoV= 1 UseB2=F ITyADJ=14
 ICtDFT=  3500011 ScaDFX=  1.000000  1.000000  1.000000  1.000000
 FoFCou: FMM=F IPFlag=           0 FMFlag=      100000 FMFlg1=           0
         NFxFlg=           0 DoJE=T BraDBF=F KetDBF=T FulRan=T
         wScrn=  0.000000 ICntrl=       500 IOpCl=  0 I1Cent=   200000004 NGrid=           0
         NMat0=    1 NMatS0=      1 NMatT0=    0 NMatD0=    1 NMtDS0=    0 NMtDT0=    0
 Petite list used in FoFCou.
 Initial guess orbital symmetries:
 Alpha Orbitals:
       Occupied  (AU) (AG) (AU) (AG) (AG) (AU) (AG) (AU) (AG) (AU)
                 (AG) (AU) (AU) (AG) (AG) (AU) (AU) (AG) (AU) (AG)
                 (AG) (AU) (AG) (AG) (AU) (AU) (AU) (AU) (AG) (AG)
                 (AG) (AG) (AU) (AU) (AG)
       Virtual   (AG) (AU) (AU) (AG) (AU) (AU) (AG) (AG) (AG) (AG)
                 (AU) (AU) (AU) (AG) (AG) (AU) (AG) (AU) (AG) (AU)
                 (AU) (AU) (AU) (AG) (AU) (AG) (AU) (AG) (AG) (AU)
                 (AG) (AG) (AG) (AU) (AU) (AU) (AU) (AG) (AG) (AU)
                 (AG) (AU) (AG) (AU) (AG) (AG) (AU) (AU) (AG) (AG)
                 (AG) (AU) (AU) (AU) (AG) (AG) (AU) (AU) (AU) (AG)
                 (AU) (AG) (AU) (AU) (AG) (AG) (AG) (AU) (AU) (AG)
                 (AG) (AG) (AU) (AU) (AG) (AU) (AG) (AU) (AU) (AG)
                 (AU) (AG) (AU) (AG) (AU) (AG) (AG) (AU) (AG) (AU)
                 (AU) (AG) (AG) (AU) (AU) (AG) (AU) (AG) (AG) (AU)
                 (AG) (AU) (AU) (AG) (AU) (AU) (AG) (AG) (AU) (AG)
                 (AG) (AU) (AU) (AG) (AU) (AG) (AU) (AG) (AG) (AU)
                 (AG) (AU) (AU) (AG) (AU) (AU) (AG) (AG) (AG) (AU)
                 (AU) (AG) (AG) (AU) (AG) (AU) (AG) (AG) (AU) (AU)
                 (AG) (AU) (AG) (AU) (AU) (AU) (AG) (AG) (AU) (AG)
                 (AG) (AU) (AG) (AU) (AG) (AG) (AU) (AU) (AU) (AG)
                 (AG) (AU) (AG) (AU) (AG) (AU) (AU) (AG) (AG) (AU)
 Beta  Orbitals:
       Occupied  (AU) (AG) (AU) (AG) (AG) (AU) (AG) (AU) (AG) (AU)
                 (AG) (AU) (AU) (AG) (AG) (AU) (AU) (AG) (AU) (AG)
                 (AG) (AU) (AG) (AG) (AU) (AU) (AU) (AU) (AG) (AG)
                 (AG) (AG) (AU) (AU)
       Virtual   (AG) (AG) (AU) (AU) (AG) (AU) (AU) (AG) (AG) (AG)
                 (AG) (AU) (AU) (AU) (AG) (AG) (AU) (AG) (AU) (AG)
                 (AU) (AU) (AU) (AU) (AG) (AU) (AG) (AU) (AG) (AG)
                 (AU) (AG) (AG) (AG) (AU) (AU) (AU) (AU) (AG) (AG)
                 (AU) (AG) (AU) (AG) (AU) (AG) (AG) (AU) (AU) (AG)
                 (AG) (AG) (AU) (AU) (AU) (AG) (AG) (AU) (AU) (AU)
                 (AG) (AU) (AG) (AU) (AU) (AG) (AG) (AG) (AU) (AU)
                 (AG) (AG) (AG) (AU) (AU) (AG) (AU) (AG) (AU) (AU)
                 (AG) (AU) (AG) (AU) (AG) (AU) (AG) (AG) (AU) (AG)
                 (AU) (AU) (AG) (AG) (AU) (AU) (AG) (AU) (AG) (AG)
                 (AU) (AG) (AU) (AU) (AG) (AU) (AU) (AG) (AG) (AU)
                 (AG) (AG) (AU) (AU) (AG) (AU) (AG) (AU) (AG) (AG)
                 (AU) (AG) (AU) (AU) (AG) (AU) (AU) (AG) (AG) (AG)
                 (AU) (AU) (AG) (AG) (AU) (AG) (AU) (AG) (AG) (AU)
                 (AU) (AG) (AU) (AG) (AU) (AU) (AU) (AG) (AG) (AU)
                 (AG) (AG) (AU) (AG) (AU) (AG) (AG) (AU) (AU) (AU)
                 (AG) (AG) (AU) (AG) (AU) (AG) (AU) (AU) (AG) (AG)
                 (AU)
 The electronic state of the initial guess is 2-AG.
 Initial guess <Sx>= 0.0000 <Sy>= 0.0000 <Sz>= 0.5000 <S**2>= 0.7500 S= 0.5000
 Requested convergence on RMS density matrix=1.00D-08 within 128 cycles.
 Requested convergence on MAX density matrix=1.00D-06.
 Requested convergence on             energy=1.00D-06.
 No special actions if energy rises.
 SCF Done:  E(UB3LYP) =  -385.794193128     A.U. after   20 cycles
            NFock= 20  Conv=0.73D-08     -V/T= 2.0047
 <Sx>= 0.0000 <Sy>= 0.0000 <Sz>= 0.5000 <S**2>= 0.7590 S= 0.5045
 <L.S>=  0.00000000000    
 Annihilation of the first spin contaminant:
 S**2 before annihilation     0.7590,   after     0.7501

 **********************************************************************

            Population analysis using the SCF Density.

 **********************************************************************

 Orbital symmetries:
 Alpha Orbitals:
       Occupied  (AG) (AU) (AG) (AU) (AG) (AU) (AU) (AG) (AU) (AG)
                 (AG) (AU) (AU) (AG) (AG) (AU) (AU) (AG) (AG) (AU)
                 (AG) (AU) (AG) (AG) (AU) (AU) (AU) (AU) (AG) (AG)
                 (AG) (AG) (AU) (AU) (AG)
       Virtual   (AG) (AU) (AU) (AG) (AG) (AG) (AU) (AU) (AU) (AU)
                 (AG) (AG) (AG) (AU) (AG) (AG) (AU) (AU) (AU) (AU)
                 (AU) (AG) (AU) (AG) (AU) (AG) (AG) (AG) (AG) (AU)
                 (AU) (AU) (AG) (AG) (AU) (AU) (AG) (AU) (AG) (AG)
                 (AU) (AU) (AG) (AG) (AU) (AU) (AU) (AG) (AU) (AG)
                 (AG) (AU) (AG) (AU) (AG) (AG) (AU) (AU) (AU) (AG)
                 (AU) (AG) (AG) (AU) (AU) (AG) (AG) (AU) (AG) (AU)
                 (AU) (AG) (AU) (AG) (AG) (AG) (AU) (AU) (AU) (AU)
                 (AG) (AG) (AU) (AG) (AU) (AG) (AG) (AG) (AU) (AU)
                 (AU) (AG) (AG) (AU) (AU) (AG) (AU) (AG) (AG) (AU)
                 (AU) (AU) (AG) (AG) (AU) (AG) (AU) (AG) (AU) (AG)
                 (AG) (AU) (AU) (AG) (AG) (AU) (AU) (AG) (AG) (AU)
                 (AG) (AU) (AG) (AU) (AU) (AU) (AG) (AG) (AG) (AU)
                 (AU) (AG) (AU) (AG) (AG) (AU) (AG) (AG) (AG) (AU)
                 (AU) (AG) (AU) (AU) (AU) (AU) (AG) (AU) (AG) (AG)
                 (AG) (AU) (AG) (AU) (AG) (AG) (AU) (AU) (AU) (AG)
                 (AG) (AU) (AG) (AU) (AG) (AU) (AU) (AG) (AG) (AU)
 Beta  Orbitals:
       Occupied  (AG) (AU) (AG) (AU) (AG) (AU) (AU) (AG) (AU) (AG)
                 (AG) (AU) (AU) (AG) (AG) (AU) (AU) (AG) (AG) (AU)
                 (AG) (AU) (AG) (AG) (AU) (AU) (AU) (AU) (AG) (AG)
                 (AG) (AG) (AU) (AU)
       Virtual   (AG) (AU) (AU) (AG) (AG) (AG) (AG) (AU) (AU) (AU)
                 (AG) (AU) (AG) (AG) (AG) (AU) (AG) (AU) (AU) (AU)
                 (AG) (AU) (AU) (AU) (AU) (AG) (AG) (AG) (AG) (AG)
                 (AU) (AU) (AU) (AG) (AG) (AU) (AU) (AG) (AU) (AG)
                 (AG) (AU) (AU) (AG) (AG) (AU) (AU) (AU) (AG) (AU)
                 (AG) (AG) (AU) (AG) (AG) (AU) (AG) (AU) (AU) (AU)
                 (AG) (AU) (AG) (AG) (AU) (AU) (AG) (AG) (AU) (AU)
                 (AG) (AU) (AG) (AU) (AG) (AU) (AG) (AG) (AU) (AU)
                 (AG) (AU) (AG) (AU) (AG) (AU) (AG) (AG) (AG) (AU)
                 (AU) (AU) (AG) (AG) (AU) (AU) (AG) (AU) (AG) (AG)
                 (AU) (AU) (AU) (AG) (AG) (AU) (AG) (AU) (AG) (AU)
                 (AG) (AG) (AU) (AU) (AG) (AG) (AU) (AU) (AG) (AG)
                 (AU) (AG) (AU) (AG) (AU) (AU) (AU) (AG) (AG) (AG)
                 (AU) (AU) (AG) (AU) (AG) (AG) (AU) (AG) (AG) (AU)
                 (AG) (AU) (AG) (AU) (AU) (AU) (AU) (AG) (AU) (AG)
                 (AG) (AG) (AU) (AG) (AU) (AG) (AG) (AU) (AU) (AU)
                 (AG) (AG) (AU) (AG) (AU) (AG) (AU) (AU) (AG) (AG)
                 (AU)
 The electronic state is 2-AG.
 Alpha  occ. eigenvalues --  -10.01957 -10.01910 -10.00429 -10.00428 -10.00348
 Alpha  occ. eigenvalues --  -10.00348  -9.99020  -9.99020  -9.98827  -9.98827
 Alpha  occ. eigenvalues --   -0.69788  -0.64969  -0.60662  -0.57328  -0.55690
 Alpha  occ. eigenvalues --   -0.47058  -0.44754  -0.44678  -0.36917  -0.36472
 Alpha  occ. eigenvalues --   -0.33185  -0.30303  -0.27075  -0.26289  -0.24403
 Alpha  occ. eigenvalues --   -0.23940  -0.21790  -0.21259  -0.16723  -0.16524
 Alpha  occ. eigenvalues --   -0.16017  -0.11688  -0.07769  -0.05336   0.07994
 Alpha virt. eigenvalues --    0.12775   0.13218   0.13263   0.14921   0.15079
 Alpha virt. eigenvalues --    0.15239   0.15801   0.16989   0.17593   0.18923
 Alpha virt. eigenvalues --    0.19216   0.20506   0.20593   0.21732   0.21736
 Alpha virt. eigenvalues --    0.22447   0.24054   0.25054   0.25549   0.25651
 Alpha virt. eigenvalues --    0.26343   0.26642   0.27019   0.28463   0.28725
 Alpha virt. eigenvalues --    0.29052   0.29756   0.31785   0.32398   0.32503
 Alpha virt. eigenvalues --    0.33403   0.34292   0.34708   0.35090   0.35698
 Alpha virt. eigenvalues --    0.36169   0.36555   0.37878   0.38329   0.39346
 Alpha virt. eigenvalues --    0.40294   0.40486   0.41679   0.42529   0.43740
 Alpha virt. eigenvalues --    0.44224   0.45112   0.45204   0.46925   0.48951
 Alpha virt. eigenvalues --    0.49363   0.50840   0.51343   0.52053   0.52085
 Alpha virt. eigenvalues --    0.54400   0.56339   0.59295   0.70191   0.70736
 Alpha virt. eigenvalues --    0.77810   0.81457   0.82318   0.82952   0.83132
 Alpha virt. eigenvalues --    0.84544   0.87856   0.88011   0.88676   0.88840
 Alpha virt. eigenvalues --    0.89974   0.91719   0.91909   0.92250   0.93475
 Alpha virt. eigenvalues --    0.94264   0.94410   0.97287   0.98496   0.98828
 Alpha virt. eigenvalues --    0.98917   1.04445   1.10535   1.11322   1.13679
 Alpha virt. eigenvalues --    1.16093   1.16351   1.18462   1.19442   1.20567
 Alpha virt. eigenvalues --    1.22285   1.23264   1.24827   1.28154   1.29100
 Alpha virt. eigenvalues --    1.30023   1.30088   1.33108   1.35884   1.38819
 Alpha virt. eigenvalues --    1.39738   1.41747   1.43217   1.44641   1.53415
 Alpha virt. eigenvalues --    1.56046   1.56693   1.57637   1.62209   1.65319
 Alpha virt. eigenvalues --    1.65499   1.66929   1.67101   1.67554   1.70253
 Alpha virt. eigenvalues --    1.70753   1.76138   1.92049   1.99393   2.01934
 Alpha virt. eigenvalues --    2.03451   2.14390   2.14574   2.15657   2.17374
 Alpha virt. eigenvalues --    2.21785   2.25426   2.26282   2.28628   2.29662
 Alpha virt. eigenvalues --    2.31539   2.36778   2.37444   2.37580   2.37875
 Alpha virt. eigenvalues --    2.38822   2.39157   2.46366   2.50309   2.50341
 Alpha virt. eigenvalues --    2.50373   2.55173   2.55694   2.74801   2.78854
 Alpha virt. eigenvalues --    2.79612   2.85083   2.86383   2.88173   2.91869
 Alpha virt. eigenvalues --    2.92063   2.96787   2.98935   3.06094   3.10002
 Alpha virt. eigenvalues --    3.12501   3.12931   3.28444   3.59821   3.73275
 Alpha virt. eigenvalues --    4.42725   4.44896   4.47228   4.50567   4.51143
 Alpha virt. eigenvalues --    4.54137   4.60815   4.64060   4.74597   5.01122
  Beta  occ. eigenvalues --  -10.02040 -10.01994 -10.00367 -10.00367 -10.00286
  Beta  occ. eigenvalues --  -10.00286  -9.98699  -9.98699  -9.98506  -9.98506
  Beta  occ. eigenvalues --   -0.69442  -0.64513  -0.60052  -0.57092  -0.55105
  Beta  occ. eigenvalues --   -0.46339  -0.44641  -0.44287  -0.36520  -0.36269
  Beta  occ. eigenvalues --   -0.33054  -0.30095  -0.26935  -0.26069  -0.24241
  Beta  occ. eigenvalues --   -0.23767  -0.21066  -0.20892  -0.16602  -0.16304
  Beta  occ. eigenvalues --   -0.14728  -0.10040  -0.07044  -0.03272
  Beta virt. eigenvalues --    0.12717   0.13141   0.13222   0.13747   0.14839
  Beta virt. eigenvalues --    0.15018   0.15321   0.16455   0.16886   0.17553
  Beta virt. eigenvalues --    0.19330   0.19597   0.20642   0.20728   0.21711
  Beta virt. eigenvalues --    0.22230   0.22324   0.24144   0.24998   0.25625
  Beta virt. eigenvalues --    0.26554   0.26663   0.26958   0.27131   0.28790
  Beta virt. eigenvalues --    0.28998   0.29270   0.29678   0.31683   0.32422
  Beta virt. eigenvalues --    0.33239   0.33379   0.34509   0.34718   0.35103
  Beta virt. eigenvalues --    0.35805   0.36279   0.36548   0.37777   0.39520
  Beta virt. eigenvalues --    0.39569   0.40394   0.40481   0.41715   0.42537
  Beta virt. eigenvalues --    0.43850   0.44305   0.45424   0.45550   0.47009
  Beta virt. eigenvalues --    0.49190   0.49632   0.51072   0.51444   0.52200
  Beta virt. eigenvalues --    0.52416   0.54506   0.56302   0.59517   0.70596
  Beta virt. eigenvalues --    0.71007   0.77840   0.81987   0.82427   0.82987
  Beta virt. eigenvalues --    0.83761   0.85180   0.88125   0.89121   0.89177
  Beta virt. eigenvalues --    0.89761   0.90500   0.91944   0.92048   0.92803
  Beta virt. eigenvalues --    0.94404   0.94480   0.94860   0.97527   0.98706
  Beta virt. eigenvalues --    0.99082   1.00033   1.04430   1.10815   1.11427
  Beta virt. eigenvalues --    1.13738   1.16283   1.16659   1.18649   1.19672
  Beta virt. eigenvalues --    1.20896   1.22552   1.23397   1.25070   1.28421
  Beta virt. eigenvalues --    1.29565   1.30057   1.30179   1.33388   1.36167
  Beta virt. eigenvalues --    1.39030   1.39951   1.42219   1.43916   1.45090
  Beta virt. eigenvalues --    1.53623   1.56286   1.57555   1.58581   1.62744
  Beta virt. eigenvalues --    1.65859   1.66061   1.67517   1.67909   1.68087
  Beta virt. eigenvalues --    1.70473   1.71156   1.76364   1.92810   1.99457
  Beta virt. eigenvalues --    2.02257   2.04466   2.14728   2.14970   2.16208
  Beta virt. eigenvalues --    2.18389   2.22041   2.25574   2.26477   2.28895
  Beta virt. eigenvalues --    2.29854   2.31761   2.36839   2.37892   2.38509
  Beta virt. eigenvalues --    2.38577   2.39331   2.39691   2.46550   2.50918
  Beta virt. eigenvalues --    2.51176   2.51424   2.55894   2.56374   2.75680
  Beta virt. eigenvalues --    2.79612   2.80217   2.85723   2.86496   2.88403
  Beta virt. eigenvalues --    2.91973   2.92833   2.96785   2.99667   3.06295
  Beta virt. eigenvalues --    3.10156   3.12721   3.13305   3.28718   3.59964
  Beta virt. eigenvalues --    3.73411   4.43067   4.45122   4.47315   4.51031
  Beta virt. eigenvalues --    4.51697   4.54896   4.60904   4.64506   4.75007
  Beta virt. eigenvalues --    5.01418
          Condensed to atoms (all electrons):
               1          2          3          4          5          6
     1  C    6.835815  -0.152088  -0.835777   0.045123   0.613186  -0.002190
     2  H   -0.152088   0.639800   0.059900   0.002122   0.041037   0.036110
     3  C   -0.835777   0.059900  10.846414   0.273890  -3.352415  -3.693338
     4  C    0.045123   0.002122   0.273890   6.835815  -0.002190   0.613186
     5  C    0.613186   0.041037  -3.352415  -0.002190  16.429452   2.274885
     6  C   -0.002190   0.036110  -3.693338   0.613186   2.274885  16.429452
     7  H    0.000033  -0.000014  -0.000079  -0.021099   0.015083   0.120335
     8  H   -0.002019  -0.000000   0.015940   0.453876   0.033976   0.034384
     9  H   -0.014097   0.000000  -0.122081   0.030284   0.125026   0.028283
    10  C   -0.471872  -0.142547   0.930961  -0.532660  -3.724581  -3.367459
    11  H    0.030284  -0.009139  -0.027432  -0.014097   0.028283   0.125026
    12  H    0.453876  -0.007721  -0.137789  -0.002019   0.034384   0.033976
    13  C   -0.532660   0.015772   2.693712  -0.471872  -3.367459  -3.724581
    14  H   -0.021099  -0.000337   0.245648   0.000033   0.120335   0.015083
    15  C    0.454683   0.450313  -0.501513  -0.258637   0.096630   0.659523
    16  C   -0.258637  -0.002063  -0.583722   0.454683   0.659523   0.096630
    17  H    0.002122  -0.000000  -0.040504  -0.152088   0.036110   0.041037
    18  C    0.273890  -0.040504   0.099943  -0.835777  -3.693338  -3.352415
               7          8          9         10         11         12
     1  C    0.000033  -0.002019  -0.014097  -0.471872   0.030284   0.453876
     2  H   -0.000014  -0.000000   0.000000  -0.142547  -0.009139  -0.007721
     3  C   -0.000079   0.015940  -0.122081   0.930961  -0.027432  -0.137789
     4  C   -0.021099   0.453876   0.030284  -0.532660  -0.014097  -0.002019
     5  C    0.015083   0.033976   0.125026  -3.724581   0.028283   0.034384
     6  C    0.120335   0.034384   0.028283  -3.367459   0.125026   0.033976
     7  H    0.667697  -0.008493   0.000044  -0.112019   0.005785   0.000000
     8  H   -0.008493   0.642682  -0.000395  -0.040871  -0.000014  -0.000000
     9  H    0.000044  -0.000395   0.678081  -0.000534   0.000004  -0.000014
    10  C   -0.112019  -0.040871  -0.000534  11.146240   0.229293   0.065658
    11  H    0.005785  -0.000014   0.000004   0.229293   0.678081  -0.000395
    12  H    0.000000  -0.000000  -0.000014   0.065658  -0.000395   0.642682
    13  C   -0.026498   0.065658   0.229293  -0.075831  -0.000534  -0.040871
    14  H    0.000004   0.000000   0.005785  -0.026498   0.000044  -0.008493
    15  C   -0.014364   0.002248  -0.000329  -1.063622  -0.018361  -0.158944
    16  C    0.028190  -0.158944  -0.018361   0.335283  -0.000329   0.002248
    17  H   -0.000337  -0.007721  -0.009139   0.015772   0.000000  -0.000000
    18  C    0.245648  -0.137789  -0.027432   2.693712  -0.122081   0.015940
              13         14         15         16         17         18
     1  C   -0.532660  -0.021099   0.454683  -0.258637   0.002122   0.273890
     2  H    0.015772  -0.000337   0.450313  -0.002063  -0.000000  -0.040504
     3  C    2.693712   0.245648  -0.501513  -0.583722  -0.040504   0.099943
     4  C   -0.471872   0.000033  -0.258637   0.454683  -0.152088  -0.835777
     5  C   -3.367459   0.120335   0.096630   0.659523   0.036110  -3.693338
     6  C   -3.724581   0.015083   0.659523   0.096630   0.041037  -3.352415
     7  H   -0.026498   0.000004  -0.014364   0.028190  -0.000337   0.245648
     8  H    0.065658   0.000000   0.002248  -0.158944  -0.007721  -0.137789
     9  H    0.229293   0.005785  -0.000329  -0.018361  -0.009139  -0.027432
    10  C   -0.075831  -0.026498  -1.063622   0.335283   0.015772   2.693712
    11  H   -0.000534   0.000044  -0.018361  -0.000329   0.000000  -0.122081
    12  H   -0.040871  -0.008493  -0.158944   0.002248  -0.000000   0.015940
    13  C   11.146240  -0.112019   0.335283  -1.063622  -0.142547   0.930961
    14  H   -0.112019   0.667697   0.028190  -0.014364  -0.000014  -0.000079
    15  C    0.335283   0.028190   6.948171   0.022336  -0.002063  -0.583722
    16  C   -1.063622  -0.014364   0.022336   6.948171   0.450313  -0.501513
    17  H   -0.142547  -0.000014  -0.002063   0.450313   0.639800   0.059900
    18  C    0.930961  -0.000079  -0.583722  -0.501513   0.059900  10.846414
          Atomic-Atomic Spin Densities.
               1          2          3          4          5          6
     1  C    0.289776  -0.004233  -0.336209  -0.024868  -0.031289   0.051922
     2  H   -0.004233  -0.005082   0.000829   0.000019  -0.000289   0.002464
     3  C   -0.336209   0.000829   0.796709   0.051557   0.039783  -0.114091
     4  C   -0.024868   0.000019   0.051557   0.289776   0.051922  -0.031289
     5  C   -0.031289  -0.000289   0.039783   0.051922   0.030862  -0.049328
     6  C    0.051922   0.002464  -0.114091  -0.031289  -0.049328   0.030862
     7  H    0.000210   0.000001  -0.001052  -0.000854  -0.013370  -0.003730
     8  H    0.000015   0.000000   0.000405   0.009020  -0.000671   0.002444
     9  H   -0.002715  -0.000000   0.003248   0.003031  -0.003890  -0.013954
    10  C   -0.119333  -0.007056   0.162081   0.029150  -0.112282   0.039789
    11  H    0.003031   0.000335  -0.000604  -0.002715  -0.013954  -0.003890
    12  H    0.009020   0.000177  -0.006675   0.000015   0.002444  -0.000671
    13  C    0.029150   0.000333  -0.160175  -0.119333   0.039789  -0.112282
    14  H   -0.000854   0.000004   0.018364   0.000210  -0.003730  -0.013370
    15  C    0.173684   0.009082  -0.124230  -0.012409   0.058563  -0.025296
    16  C   -0.012409   0.000016   0.029133   0.173684  -0.025296   0.058563
    17  H    0.000019   0.000000  -0.001128  -0.004233   0.002464  -0.000289
    18  C    0.051557  -0.001128  -0.092628  -0.336209  -0.114091   0.039783
               7          8          9         10         11         12
     1  C    0.000210   0.000015  -0.002715  -0.119333   0.003031   0.009020
     2  H    0.000001   0.000000  -0.000000  -0.007056   0.000335   0.000177
     3  C   -0.001052   0.000405   0.003248   0.162081  -0.000604  -0.006675
     4  C   -0.000854   0.009020   0.003031   0.029150  -0.002715   0.000015
     5  C   -0.013370  -0.000671  -0.003890  -0.112282  -0.013954   0.002444
     6  C   -0.003730   0.002444  -0.013954   0.039789  -0.003890  -0.000671
     7  H   -0.016831   0.000310  -0.000001   0.002976  -0.000027  -0.000000
     8  H    0.000310  -0.005229   0.000005  -0.001070   0.000001   0.000000
     9  H   -0.000001   0.000005  -0.017145  -0.001020   0.000000   0.000001
    10  C    0.002976  -0.001070  -0.001020   0.794990   0.019177   0.001107
    11  H   -0.000027   0.000001   0.000000   0.019177  -0.017145   0.000005
    12  H   -0.000000   0.000000   0.000001   0.001107   0.000005  -0.005229
    13  C   -0.000703   0.001107   0.019177  -0.092257  -0.001020  -0.001070
    14  H    0.000000  -0.000000  -0.000027  -0.000703  -0.000001   0.000310
    15  C   -0.002737   0.000018   0.000222  -0.335935  -0.001033  -0.004706
    16  C    0.003156  -0.004706  -0.001033   0.046009   0.000222   0.000018
    17  H    0.000004   0.000177   0.000335   0.000333  -0.000000   0.000000
    18  C    0.018364  -0.006675  -0.000604  -0.160175   0.003248   0.000405
              13         14         15         16         17         18
     1  C    0.029150  -0.000854   0.173684  -0.012409   0.000019   0.051557
     2  H    0.000333   0.000004   0.009082   0.000016   0.000000  -0.001128
     3  C   -0.160175   0.018364  -0.124230   0.029133  -0.001128  -0.092628
     4  C   -0.119333   0.000210  -0.012409   0.173684  -0.004233  -0.336209
     5  C    0.039789  -0.003730   0.058563  -0.025296   0.002464  -0.114091
     6  C   -0.112282  -0.013370  -0.025296   0.058563  -0.000289   0.039783
     7  H   -0.000703   0.000000  -0.002737   0.003156   0.000004   0.018364
     8  H    0.001107  -0.000000   0.000018  -0.004706   0.000177  -0.006675
     9  H    0.019177  -0.000027   0.000222  -0.001033   0.000335  -0.000604
    10  C   -0.092257  -0.000703  -0.335935   0.046009   0.000333  -0.160175
    11  H   -0.001020  -0.000001  -0.001033   0.000222  -0.000000   0.003248
    12  H   -0.001070   0.000310  -0.004706   0.000018   0.000000   0.000405
    13  C    0.794990   0.002976   0.046009  -0.335935  -0.007056   0.162081
    14  H    0.002976  -0.016831   0.003156  -0.002737   0.000001  -0.001052
    15  C    0.046009   0.003156   0.281889  -0.022606   0.000016   0.029133
    16  C   -0.335935  -0.002737  -0.022606   0.281889   0.009082  -0.124230
    17  H   -0.007056   0.000001   0.000016   0.009082  -0.005082   0.000829
    18  C    0.162081  -0.001052   0.029133  -0.124230   0.000829   0.796709
 Mulliken charges and spin densities:
               1          2
     1  C   -0.418572   0.076473
     2  H    0.109359  -0.004528
     3  C    0.128241   0.265320
     4  C   -0.418572   0.076473
     5  C   -0.367927  -0.142364
     6  C   -0.367927  -0.142364
     7  H    0.100084  -0.014282
     8  H    0.107481  -0.004851
     9  H    0.095582  -0.014369
    10  C    0.141575   0.265781
    11  H    0.095582  -0.014369
    12  H    0.107481  -0.004851
    13  C    0.141575   0.265781
    14  H    0.100084  -0.014282
    15  C   -0.395823   0.072820
    16  C   -0.395823   0.072820
    17  H    0.109359  -0.004528
    18  C    0.128241   0.265320
 Sum of Mulliken charges =  -1.00000   1.00000
 Mulliken charges and spin densities with hydrogens summed into heavy atoms:
               1          2
     1  C   -0.311092   0.071622
     3  C    0.228326   0.251037
     4  C   -0.311092   0.071622
     5  C   -0.367927  -0.142364
     6  C   -0.367927  -0.142364
    10  C    0.237156   0.251412
    13  C    0.237156   0.251412
    15  C   -0.286463   0.068292
    16  C   -0.286463   0.068292
    18  C    0.228326   0.251037
 Electronic spatial extent (au):  <R**2>=           1309.2581
 Charge=             -1.0000 electrons
 Dipole moment (field-independent basis, Debye):
    X=              0.0000    Y=             -0.0000    Z=             -0.0000  Tot=              0.0000
 Quadrupole moment (field-independent basis, Debye-Ang):
   XX=            -72.9082   YY=            -67.6614   ZZ=            -77.8405
   XY=              0.3753   XZ=              4.5762   YZ=              3.3962
 Traceless Quadrupole moment (field-independent basis, Debye-Ang):
   XX=             -0.1049   YY=              5.1420   ZZ=             -5.0371
   XY=              0.3753   XZ=              4.5762   YZ=              3.3962
 Octapole moment (field-independent basis, Debye-Ang**2):
  XXX=             -0.0000  YYY=              0.0000  ZZZ=             -0.0000  XYY=              0.0000
  XXY=              0.0000  XXZ=             -0.0000  XZZ=              0.0000  YZZ=              0.0000
  YYZ=             -0.0000  XYZ=             -0.0000
 Hexadecapole moment (field-independent basis, Debye-Ang**3):
 XXXX=           -481.4245 YYYY=           -537.8349 ZZZZ=          -1164.2615 XXXY=           -128.5658
 XXXZ=            258.6278 YYYX=           -109.9357 YYYZ=             47.4986 ZZZX=            223.9459
 ZZZY=             61.5716 XXYY=           -159.8770 XXZZ=           -272.1385 YYZZ=           -282.1449
 XXYZ=              3.6382 YYXZ=             77.6799 ZZXY=            -36.9715
 N-N= 4.629367453971D+02 E-N=-1.831970943369D+03  KE= 3.839857211094D+02
 Symmetry AG   KE= 1.932287386616D+02
 Symmetry AU   KE= 1.907569824476D+02
 Symmetry AG   SP= 1.000000000000D+00
 Symmetry AU   SP= 2.827001728005D-14
                          Isotropic Fermi Contact Couplings
        Atom                 a.u.       MegaHertz       Gauss      10(-4) cm-1
     1  C(13)             -0.00054      -0.60716      -0.21665      -0.20253
     2  H(1)              -0.00107      -4.80072      -1.71301      -1.60135
     3  C(13)              0.02100      23.60636       8.42334       7.87423
     4  C(13)             -0.00054      -0.60716      -0.21665      -0.20253
     5  C(13)             -0.01282     -14.40894      -5.14147      -4.80630
     6  C(13)             -0.01282     -14.40894      -5.14147      -4.80630
     7  H(1)              -0.00355     -15.85320      -5.65682      -5.28806
     8  H(1)              -0.00109      -4.85150      -1.73113      -1.61828
     9  H(1)              -0.00353     -15.79322      -5.63541      -5.26805
    10  C(13)              0.02072      23.29404       8.31189       7.77005
    11  H(1)              -0.00353     -15.79322      -5.63541      -5.26805
    12  H(1)              -0.00109      -4.85150      -1.73113      -1.61828
    13  C(13)              0.02072      23.29404       8.31189       7.77005
    14  H(1)              -0.00355     -15.85320      -5.65682      -5.28806
    15  C(13)             -0.00042      -0.47474      -0.16940      -0.15836
    16  C(13)             -0.00042      -0.47474      -0.16940      -0.15836
    17  H(1)              -0.00107      -4.80072      -1.71301      -1.60135
    18  C(13)              0.02100      23.60636       8.42334       7.87423
 --------------------------------------------------------
       Center         ----  Spin Dipole Couplings  ----
                      3XX-RR        3YY-RR        3ZZ-RR
 --------------------------------------------------------
     1   Atom        0.033181     -0.012008     -0.021173
     2   Atom        0.001077      0.001363     -0.002440
     3   Atom        0.135304     -0.055243     -0.080060
     4   Atom        0.033181     -0.012008     -0.021173
     5   Atom       -0.025370      0.007267      0.018102
     6   Atom       -0.025370      0.007267      0.018102
     7   Atom       -0.002577      0.013701     -0.011124
     8   Atom       -0.002261     -0.003732      0.005993
     9   Atom       -0.001816      0.014587     -0.012771
    10   Atom        0.137547     -0.058231     -0.079316
    11   Atom       -0.001816      0.014587     -0.012771
    12   Atom       -0.002261     -0.003732      0.005993
    13   Atom        0.137547     -0.058231     -0.079316
    14   Atom       -0.002577      0.013701     -0.011124
    15   Atom        0.032090     -0.015322     -0.016767
    16   Atom        0.032090     -0.015322     -0.016767
    17   Atom        0.001077      0.001363     -0.002440
    18   Atom        0.135304     -0.055243     -0.080060
 --------------------------------------------------------
                        XY            XZ            YZ
 --------------------------------------------------------
     1   Atom       -0.030703      0.027555     -0.017338
     2   Atom        0.003773     -0.002276     -0.004935
     3   Atom       -0.136166      0.110958     -0.058842
     4   Atom       -0.030703      0.027555     -0.017338
     5   Atom        0.024695     -0.023955      0.008157
     6   Atom        0.024695     -0.023955      0.008157
     7   Atom        0.002292      0.010355      0.010412
     8   Atom       -0.002666     -0.001439      0.003726
     9   Atom        0.003135      0.010517      0.009086
    10   Atom       -0.135790      0.110972     -0.056215
    11   Atom        0.003135      0.010517      0.009086
    12   Atom       -0.002666     -0.001439      0.003726
    13   Atom       -0.135790      0.110972     -0.056215
    14   Atom        0.002292      0.010355      0.010412
    15   Atom       -0.034147      0.026561     -0.010422
    16   Atom       -0.034147      0.026561     -0.010422
    17   Atom        0.003773     -0.002276     -0.004935
    18   Atom       -0.136166      0.110958     -0.058842
 --------------------------------------------------------


 ---------------------------------------------------------------------------------
              Anisotropic Spin Dipole Couplings in Principal Axis System
 ---------------------------------------------------------------------------------

       Atom             a.u.   MegaHertz   Gauss  10(-4) cm-1        Axes

              Baa    -0.0350    -4.693    -1.674    -1.565 -0.1406  0.4700  0.8714
     1 C(13)  Bbb    -0.0265    -3.552    -1.267    -1.185  0.5475  0.7702 -0.3271
              Bcc     0.0614     8.245     2.942     2.750  0.8249 -0.4311  0.3656
 
              Baa    -0.0058    -3.116    -1.112    -1.039 -0.0506  0.5824  0.8114
     2 H(1)   Bbb    -0.0018    -0.983    -0.351    -0.328  0.8306 -0.4265  0.3580
              Bcc     0.0077     4.099     1.463     1.367  0.5545  0.6920 -0.4621
 
              Baa    -0.1278   -17.151    -6.120    -5.721 -0.0594  0.5590  0.8270
     3 C(13)  Bbb    -0.1257   -16.867    -6.018    -5.626  0.5551  0.7071 -0.4381
              Bcc     0.2535    34.018    12.138    11.347  0.8296 -0.4331  0.3524
 
              Baa    -0.0350    -4.693    -1.674    -1.565 -0.1406  0.4700  0.8714
     4 C(13)  Bbb    -0.0265    -3.552    -1.267    -1.185  0.5475  0.7702 -0.3271
              Bcc     0.0614     8.245     2.942     2.750  0.8249 -0.4311  0.3656
 
              Baa    -0.0481    -6.454    -2.303    -2.153  0.8337 -0.4240  0.3539
     5 C(13)  Bbb     0.0188     2.527     0.902     0.843  0.2884  0.8807  0.3757
              Bcc     0.0293     3.927     1.401     1.310 -0.4710 -0.2111  0.8565
 
              Baa    -0.0481    -6.454    -2.303    -2.153  0.8337 -0.4240  0.3539
     6 C(13)  Bbb     0.0188     2.527     0.902     0.843  0.2884  0.8807  0.3757
              Bcc     0.0293     3.927     1.401     1.310 -0.4710 -0.2111  0.8565
 
              Baa    -0.0198   -10.568    -3.771    -3.525 -0.4785 -0.2305  0.8473
     7 H(1)   Bbb     0.0006     0.343     0.122     0.114  0.8319 -0.4279  0.3534
              Bcc     0.0192    10.224     3.648     3.410  0.2810  0.8739  0.3965
 
              Baa    -0.0062    -3.303    -1.179    -1.102  0.4994  0.8433 -0.1989
     8 H(1)   Bbb    -0.0016    -0.840    -0.300    -0.280  0.8372 -0.4105  0.3613
              Bcc     0.0078     4.143     1.478     1.382 -0.2230  0.3470  0.9110
 
              Baa    -0.0203   -10.834    -3.866    -3.614 -0.4621 -0.1843  0.8674
     9 H(1)   Bbb     0.0010     0.546     0.195     0.182  0.8321 -0.4283  0.3523
              Bcc     0.0193    10.288     3.671     3.432  0.3066  0.8846  0.3513
 
              Baa    -0.1279   -17.157    -6.122    -5.723  0.5153  0.8288 -0.2182
    10 C(13)  Bbb    -0.1257   -16.866    -6.018    -5.626 -0.1971  0.3623  0.9110
              Bcc     0.2535    34.023    12.140    11.349  0.8341 -0.4264  0.3501
 
              Baa    -0.0203   -10.834    -3.866    -3.614 -0.4621 -0.1843  0.8674
    11 H(1)   Bbb     0.0010     0.546     0.195     0.182  0.8321 -0.4283  0.3523
              Bcc     0.0193    10.288     3.671     3.432  0.3066  0.8846  0.3513
 
              Baa    -0.0062    -3.303    -1.179    -1.102  0.4994  0.8433 -0.1989
    12 H(1)   Bbb    -0.0016    -0.840    -0.300    -0.280  0.8372 -0.4105  0.3613
              Bcc     0.0078     4.143     1.478     1.382 -0.2230  0.3470  0.9110
 
              Baa    -0.1279   -17.157    -6.122    -5.723  0.5153  0.8288 -0.2182
    13 C(13)  Bbb    -0.1257   -16.866    -6.018    -5.626 -0.1971  0.3623  0.9110
              Bcc     0.2535    34.023    12.140    11.349  0.8341 -0.4264  0.3501
 
              Baa    -0.0198   -10.568    -3.771    -3.525 -0.4785 -0.2305  0.8473
    14 H(1)   Bbb     0.0006     0.343     0.122     0.114  0.8319 -0.4279  0.3534
              Bcc     0.0192    10.224     3.648     3.410  0.2810  0.8739  0.3965
 
              Baa    -0.0344    -4.611    -1.645    -1.538  0.5356  0.7665 -0.3545
    15 C(13)  Bbb    -0.0260    -3.493    -1.247    -1.165 -0.1142  0.4816  0.8689
              Bcc     0.0604     8.104     2.892     2.703  0.8367 -0.4249  0.3454
 
              Baa    -0.0344    -4.611    -1.645    -1.538  0.5356  0.7665 -0.3545
    16 C(13)  Bbb    -0.0260    -3.493    -1.247    -1.165 -0.1142  0.4816  0.8689
              Bcc     0.0604     8.104     2.892     2.703  0.8367 -0.4249  0.3454
 
              Baa    -0.0058    -3.116    -1.112    -1.039 -0.0506  0.5824  0.8114
    17 H(1)   Bbb    -0.0018    -0.983    -0.351    -0.328  0.8306 -0.4265  0.3580
              Bcc     0.0077     4.099     1.463     1.367  0.5545  0.6920 -0.4621
 
              Baa    -0.1278   -17.151    -6.120    -5.721 -0.0594  0.5590  0.8270
    18 C(13)  Bbb    -0.1257   -16.867    -6.018    -5.626  0.5551  0.7071 -0.4381
              Bcc     0.2535    34.018    12.138    11.347  0.8296 -0.4331  0.3524
 

 ---------------------------------------------------------------------------------

 Calling FoFJK, ICntrl=      2127 FMM=F ISym2X=1 I1Cent= 0 IOpClX= 1 NMat=1 NMatS=1 NMatT=0.
 ***** Axes restored to original set *****
 -------------------------------------------------------------------
 Center     Atomic                   Forces (Hartrees/Bohr)
 Number     Number              X              Y              Z
 -------------------------------------------------------------------
      1        6           0.008394783   -0.047730615   -0.075719951
      2        1          -0.049911876   -0.054817449    0.052257392
      3        6          -0.026099216   -0.099103403   -0.059700173
      4        6          -0.008394783    0.047730615    0.075719951
      5        6          -0.003415385   -0.010479469   -0.005149729
      6        6           0.003415385    0.010479469    0.005149729
      7        1          -0.038599127   -0.114205591   -0.048514215
      8        1           0.028180326   -0.026036001   -0.095612034
      9        1           0.042395662    0.128340977    0.056247195
     10        6           0.048073022    0.120384831    0.032609364
     11        1          -0.042395662   -0.128340977   -0.056247195
     12        1          -0.028180326    0.026036001    0.095612034
     13        6          -0.048073022   -0.120384831   -0.032609364
     14        1           0.038599127    0.114205591    0.048514215
     15        6           0.043083382    0.066244065   -0.021769340
     16        6          -0.043083382   -0.066244065    0.021769340
     17        1           0.049911876    0.054817449   -0.052257392
     18        6           0.026099216    0.099103403    0.059700173
 -------------------------------------------------------------------
 Cartesian Forces:  Max     0.128340977 RMS     0.062075774

 GradGradGradGradGradGradGradGradGradGradGradGradGradGradGradGradGradGrad
 Berny optimization.
 FormGI is forming the generalized inverse of G from B-inverse, IUseBI=4.
 Internal  Forces:  Max     0.146390955 RMS     0.035764299
 Search for a local minimum.
 Step number   1 out of a maximum of  103
 All quantities printed in internal units (Hartrees-Bohrs-Radians)
 Mixed Optimization -- RFO/linear search
 Second derivative matrix not updated -- first step.
 ITU=  0
     Eigenvalues ---    0.01783   0.01796   0.01799   0.01980   0.02012
     Eigenvalues ---    0.02035   0.02039   0.02098   0.02098   0.02155
     Eigenvalues ---    0.02156   0.02173   0.02201   0.02261   0.02273
     Eigenvalues ---    0.15996   0.15996   0.15998   0.15998   0.15998
     Eigenvalues ---    0.15998   0.15999   0.16000   0.22000   0.22000
     Eigenvalues ---    0.22333   0.22798   0.24280   0.24713   0.37363
     Eigenvalues ---    0.39451   0.39902   0.41061   0.41995   0.42970
     Eigenvalues ---    0.43363   0.47741   0.47943   0.49129   0.49136
     Eigenvalues ---    0.49542   0.49542   0.51463   0.51463   0.55800
     Eigenvalues ---    0.55800   0.58348   0.58348
 RFO step:  Lambda=-1.67032033D-01 EMin= 1.78302963D-02
 Linear search not attempted -- first point.
 Maximum step size (   0.300) exceeded in Quadratic search.
    -- Step size scaled by   0.618
 Iteration  1 RMS(Cart)=  0.03730106 RMS(Int)=  0.00008061
 Iteration  2 RMS(Cart)=  0.00010173 RMS(Int)=  0.00000416
 Iteration  3 RMS(Cart)=  0.00000001 RMS(Int)=  0.00000416
 ClnCor:  largest displacement from symmetrization is 1.51D-09 for atom    12.
 Variable       Old X    -DE/DX   Delta X   Delta X   Delta X     New X
                                 (Linear)    (Quad)   (Total)
    R1        2.60340   0.02961   0.00000   0.02775   0.02775   2.63115
    R2        1.85117   0.10301   0.00000   0.09342   0.09342   1.94460
    R3        2.66739  -0.00638   0.00000  -0.00622  -0.00622   2.66117
    R4        1.87031   0.09064   0.00000   0.08459   0.08459   1.95490
    R5        2.68993   0.00891   0.00000   0.00921   0.00920   2.69913
    R6        1.81128   0.12992   0.00000   0.11078   0.11078   1.92206
    R7        1.85117   0.10301   0.00000   0.09342   0.09342   1.94460
    R8        2.66739  -0.00638   0.00000  -0.00622  -0.00622   2.66117
    R9        2.60340   0.02961   0.00000   0.02775   0.02775   2.63115
   R10        2.68641   0.01495   0.00000   0.01506   0.01505   2.70146
   R11        2.69002   0.00813   0.00000   0.00846   0.00846   2.69847
   R12        2.68993   0.00891   0.00000   0.00921   0.00920   2.69913
   R13        2.69002   0.00813   0.00000   0.00846   0.00846   2.69847
   R14        1.81128   0.12992   0.00000   0.11078   0.11078   1.92206
   R15        1.78972   0.14639   0.00000   0.12059   0.12059   1.91031
   R16        1.78972   0.14639   0.00000   0.12059   0.12059   1.91031
   R17        2.60045   0.03249   0.00000   0.03037   0.03038   2.63083
   R18        2.60045   0.03249   0.00000   0.03037   0.03038   2.63083
   R19        1.87031   0.09064   0.00000   0.08459   0.08459   1.95490
    A1        2.10779   0.00040   0.00000   0.00007   0.00007   2.10786
    A2        2.10716  -0.00333   0.00000  -0.00490  -0.00489   2.10227
    A3        2.06808   0.00293   0.00000   0.00485   0.00484   2.07292
    A4        2.09884   0.00423   0.00000   0.00641   0.00640   2.10524
    A5        2.12715  -0.00429   0.00000  -0.00732  -0.00731   2.11984
    A6        2.05716   0.00006   0.00000   0.00091   0.00091   2.05808
    A7        2.06808   0.00293   0.00000   0.00485   0.00484   2.07292
    A8        2.10779   0.00040   0.00000   0.00007   0.00007   2.10786
    A9        2.10716  -0.00333   0.00000  -0.00490  -0.00489   2.10227
   A10        2.08207  -0.00237   0.00000  -0.00387  -0.00387   2.07819
   A11        2.07765  -0.00078   0.00000  -0.00169  -0.00170   2.07596
   A12        2.12347   0.00315   0.00000   0.00556   0.00557   2.12904
   A13        2.07765  -0.00078   0.00000  -0.00169  -0.00170   2.07596
   A14        2.12347   0.00315   0.00000   0.00556   0.00557   2.12904
   A15        2.08207  -0.00237   0.00000  -0.00387  -0.00387   2.07819
   A16        2.06126  -0.00029   0.00000  -0.00005  -0.00005   2.06121
   A17        2.10162   0.00306   0.00000   0.00479   0.00479   2.10641
   A18        2.12018  -0.00277   0.00000  -0.00473  -0.00473   2.11545
   A19        2.06126  -0.00029   0.00000  -0.00005  -0.00005   2.06121
   A20        2.10162   0.00306   0.00000   0.00479   0.00479   2.10641
   A21        2.12018  -0.00277   0.00000  -0.00473  -0.00473   2.11545
   A22        2.10433  -0.00256   0.00000  -0.00523  -0.00524   2.09909
   A23        2.09900  -0.00081   0.00000  -0.00074  -0.00073   2.09827
   A24        2.07969   0.00337   0.00000   0.00599   0.00598   2.08568
   A25        2.09900  -0.00081   0.00000  -0.00074  -0.00073   2.09827
   A26        2.10433  -0.00256   0.00000  -0.00523  -0.00524   2.09909
   A27        2.07969   0.00337   0.00000   0.00599   0.00598   2.08568
   A28        2.09884   0.00423   0.00000   0.00641   0.00640   2.10524
   A29        2.12715  -0.00429   0.00000  -0.00732  -0.00731   2.11984
   A30        2.05716   0.00006   0.00000   0.00091   0.00091   2.05808
    D1       -3.12052  -0.00033   0.00000  -0.00106  -0.00106  -3.12158
    D2        0.02980  -0.00048   0.00000  -0.00153  -0.00152   0.02827
    D3        0.00219  -0.00004   0.00000  -0.00011  -0.00011   0.00208
    D4       -3.13068  -0.00019   0.00000  -0.00057  -0.00057  -3.13125
    D5        3.12636   0.00025   0.00000   0.00081   0.00081   3.12717
    D6        0.00410  -0.00006   0.00000  -0.00016  -0.00016   0.00394
    D7       -0.03369   0.00051   0.00000   0.00170   0.00170  -0.03199
    D8        3.12723   0.00020   0.00000   0.00072   0.00073   3.12796
    D9       -0.00355   0.00005   0.00000   0.00018   0.00018  -0.00337
   D10        3.13685   0.00004   0.00000   0.00015   0.00015   3.13700
   D11        3.12966   0.00017   0.00000   0.00058   0.00058   3.13024
   D12       -0.01312   0.00016   0.00000   0.00055   0.00055  -0.01257
   D13       -3.12723  -0.00020   0.00000  -0.00072  -0.00073  -3.12796
   D14        0.03369  -0.00051   0.00000  -0.00170  -0.00170   0.03199
   D15       -0.00410   0.00006   0.00000   0.00016   0.00016  -0.00394
   D16       -3.12636  -0.00025   0.00000  -0.00081  -0.00081  -3.12717
   D17        3.12052   0.00033   0.00000   0.00106   0.00106   3.12158
   D18       -0.02980   0.00048   0.00000   0.00153   0.00152  -0.02827
   D19       -0.00219   0.00004   0.00000   0.00011   0.00011  -0.00208
   D20        3.13068   0.00019   0.00000   0.00057   0.00057   3.13125
   D21       -0.00116  -0.00001   0.00000  -0.00002  -0.00002  -0.00118
   D22        3.14159  -0.00000   0.00000  -0.00000   0.00000   3.14159
   D23       -3.14159  -0.00000   0.00000  -0.00000  -0.00000   3.14159
   D24        0.00116   0.00001   0.00000   0.00002   0.00002   0.00118
   D25        3.13239   0.00015   0.00000   0.00052   0.00053   3.13292
   D26        0.00740  -0.00008   0.00000  -0.00023  -0.00023   0.00716
   D27       -0.01040   0.00014   0.00000   0.00050   0.00050  -0.00990
   D28       -3.13539  -0.00008   0.00000  -0.00026  -0.00026  -3.13565
   D29        0.00355  -0.00005   0.00000  -0.00018  -0.00018   0.00337
   D30       -3.12966  -0.00017   0.00000  -0.00058  -0.00058  -3.13024
   D31       -3.13685  -0.00004   0.00000  -0.00015  -0.00015  -3.13700
   D32        0.01312  -0.00016   0.00000  -0.00055  -0.00055   0.01257
   D33        0.01040  -0.00014   0.00000  -0.00050  -0.00050   0.00990
   D34        3.13539   0.00008   0.00000   0.00026   0.00026   3.13565
   D35       -3.13239  -0.00015   0.00000  -0.00052  -0.00053  -3.13292
   D36       -0.00740   0.00008   0.00000   0.00023   0.00023  -0.00716
   D37       -0.00889   0.00008   0.00000   0.00030   0.00030  -0.00859
   D38       -3.13142  -0.00016   0.00000  -0.00054  -0.00054  -3.13197
   D39       -3.13331  -0.00018   0.00000  -0.00054  -0.00054  -3.13385
   D40        0.02734  -0.00042   0.00000  -0.00138  -0.00138   0.02596
   D41        0.00889  -0.00008   0.00000  -0.00030  -0.00030   0.00859
   D42        3.13142   0.00016   0.00000   0.00054   0.00054   3.13197
   D43        3.13331   0.00018   0.00000   0.00054   0.00054   3.13385
   D44       -0.02734   0.00042   0.00000   0.00138   0.00138  -0.02596
         Item               Value     Threshold  Converged?
 Maximum Force            0.146391     0.000450     NO 
 RMS     Force            0.035764     0.000300     NO 
 Maximum Displacement     0.122041     0.001800     NO 
 RMS     Displacement     0.037307     0.001200     NO 
 Predicted change in Energy=-7.886196D-02
 GradGradGradGradGradGradGradGradGradGradGradGradGradGradGradGradGradGrad

                          Input orientation:                          
 ---------------------------------------------------------------------
 Center     Atomic      Atomic             Coordinates (Angstroms)
 Number     Number       Type             X           Y           Z
 ---------------------------------------------------------------------
      1          6           0       -2.973850   -1.383515    2.362884
      2          1           0       -3.947169   -3.273568    2.410465
      3          6           0       -2.202259   -0.512334    1.598478
      4          6           0       -1.075150   -1.592985   -2.362884
      5          6           0       -2.232250   -2.117670   -0.267533
      6          6           0       -1.816750   -0.858830    0.267533
      7          1           0       -2.159331   -3.359103   -1.967110
      8          1           0       -0.781380   -1.847724   -3.315628
      9          1           0       -0.738573    0.897725   -0.148185
     10          6           0       -3.018235   -2.991096    0.543920
     11          1           0       -3.310427   -3.874225    0.148185
     12          1           0       -3.267620   -1.128776    3.315628
     13          6           0       -1.030765    0.014596   -0.543920
     14          1           0       -1.889669    0.382603    1.967110
     15          6           0       -3.384701   -2.622968    1.835560
     16          6           0       -0.664299   -0.353532   -1.835560
     17          1           0       -0.101831    0.297068   -2.410465
     18          6           0       -1.846741   -2.464166   -1.598478
 ---------------------------------------------------------------------
                    Distance matrix (angstroms):
                    1          2          3          4          5
     1  C    0.000000
     2  H    2.126480   0.000000
     3  C    1.392345   3.365776   0.000000
     4  C    5.097236   5.818738   4.258000   0.000000
     5  C    2.829849   3.383596   2.461707   2.450442   0.000000
     6  C    2.450442   3.868049   1.428317   2.829849   1.429550
     7  H    4.828585   4.729359   4.562823   2.109801   2.105952
     8  H    6.104745   6.696521   5.286833   1.029036   3.386558
     9  H    4.062755   5.851620   2.679827   3.349897   3.367183
    10  C    2.427945   2.103972   2.814635   3.765607   1.427971
    11  H    3.349897   2.425725   3.825401   4.062755   2.102563
    12  H    1.029036   2.425127   2.112723   6.104745   3.858620
    13  C    3.765607   5.295831   2.497983   2.427945   2.463030
    14  H    2.109801   4.218704   1.017111   4.828585   3.370809
    15  C    1.408231   1.034488   2.430876   4.901206   2.450811
    16  C    4.901206   6.110040   3.766053   1.408231   2.833613
    17  H    5.818738   7.125829   4.597668   2.126480   3.868049
    18  C    4.258000   4.597668   3.762521   1.392345   1.428317
                    6          7          8          9         10
     6  C    0.000000
     7  H    3.370809   0.000000
     8  H    3.858620   2.449799   0.000000
     9  H    2.102563   4.842275   4.191899   0.000000
    10  C    2.463030   2.679256   4.605098   4.560570   0.000000
    11  H    3.367183   2.462690   4.743499   5.428975   1.010890
    12  H    3.386558   5.840375   7.118415   4.743499   3.348551
    13  C    1.427971   3.831576   3.348551   1.010890   3.763990
    14  H    2.105952   5.436098   5.840375   2.462690   3.831576
    15  C    2.833613   4.062478   5.823489   4.830375   1.392175
    16  C    2.450811   3.359448   2.106400   2.101998   4.261419
    17  H    3.383596   4.218704   2.425127   2.425725   5.295831
    18  C    2.461707   1.017111   2.112723   3.825401   2.497983
                   11         12         13         14         15
    11  H    0.000000
    12  H    4.191899   0.000000
    13  C    4.560570   4.605098   0.000000
    14  H    4.842275   2.449799   2.679256   0.000000
    15  C    2.101998   2.106400   4.261419   3.359448   0.000000
    16  C    4.830375   5.823489   1.392175   4.062478   5.101771
    17  H    5.851620   6.696521   2.103972   4.729359   6.110040
    18  C    2.679827   5.286833   2.814635   4.562823   3.766053
                   16         17         18
    16  C    0.000000
    17  H    1.034488   0.000000
    18  C    2.430876   3.365776   0.000000
 Stoichiometry    C10H8(1-,2)
 Framework group  CI[X(C10H8)]
 Deg. of freedom    24
 Full point group                 CI      NOp   2
 Largest Abelian subgroup         CI      NOp   2
 Largest concise Abelian subgroup CI      NOp   2
                         Standard orientation:                         
 ---------------------------------------------------------------------
 Center     Atomic      Atomic             Coordinates (Angstroms)
 Number     Number       Type             X           Y           Z
 ---------------------------------------------------------------------
      1          6           0       -0.949350    0.104735    2.362884
      2          1           0       -1.922669   -1.785318    2.410465
      3          6           0       -0.177759    0.975916    1.598478
      4          6           0        0.949350   -0.104735   -2.362884
      5          6           0       -0.207750   -0.629420   -0.267533
      6          6           0        0.207750    0.629420    0.267533
      7          1           0       -0.134831   -1.870853   -1.967110
      8          1           0        1.243120   -0.359474   -3.315628
      9          1           0        1.285927    2.385975   -0.148185
     10          6           0       -0.993735   -1.502846    0.543920
     11          1           0       -1.285927   -2.385975    0.148185
     12          1           0       -1.243120    0.359474    3.315628
     13          6           0        0.993735    1.502846   -0.543920
     14          1           0        0.134831    1.870853    1.967110
     15          6           0       -1.360201   -1.134718    1.835560
     16          6           0        1.360201    1.134718   -1.835560
     17          1           0        1.922669    1.785318   -2.410465
     18          6           0        0.177759   -0.975916   -1.598478
 ---------------------------------------------------------------------
 Rotational constants (GHZ):           3.1451709           1.2194015           0.8787221
 Standard basis: 6-31+G(d) (6D, 7F)
 There are   103 symmetry adapted cartesian basis functions of AG  symmetry.
 There are   103 symmetry adapted cartesian basis functions of AU  symmetry.
 There are   103 symmetry adapted basis functions of AG  symmetry.
 There are   103 symmetry adapted basis functions of AU  symmetry.
   206 basis functions,   352 primitive gaussians,   206 cartesian basis functions
    35 alpha electrons       34 beta electrons
       nuclear repulsion energy       458.1599363691 Hartrees.
 NAtoms=   18 NActive=   18 NUniq=    9 SFac= 4.00D+00 NAtFMM=   60 NAOKFM=F Big=F
 Integral buffers will be    131072 words long.
 Raffenetti 2 integral format.
 Two-electron integral symmetry is turned on.
 One-electron integrals computed using PRISM.
 NBasis=   206 RedAO= T EigKep=  1.45D-06  NBF=   103   103
 NBsUse=   205 1.00D-06 EigRej=  7.87D-07 NBFU=   102   103
 Initial guess from the checkpoint file:  "/scr/Gau-9905.chk"
 B after Tr=     0.000000   -0.000000   -0.000000
         Rot=    1.000000   -0.000067    0.000039   -0.000029 Ang=  -0.01 deg.
 Initial guess orbital symmetries:
 Alpha Orbitals:
       Occupied  (AG) (AU) (AG) (AU) (AG) (AU) (AU) (AG) (AU) (AG)
                 (AG) (AU) (AU) (AG) (AG) (AU) (AU) (AG) (AG) (AU)
                 (AG) (AU) (AG) (AG) (AU) (AU) (AU) (AU) (AG) (AG)
                 (AG) (AG) (AU) (AU) (AG)
       Virtual   (AG) (AU) (AU) (AG) (AG) (AG) (AU) (AU) (AU) (AU)
                 (AG) (AG) (AG) (AU) (AG) (AG) (AU) (AU) (AU) (AU)
                 (AU) (AG) (AU) (AG) (AU) (AG) (AG) (AG) (AG) (AU)
                 (AU) (AU) (AG) (AG) (AU) (AU) (AG) (AU) (AG) (AG)
                 (AU) (AU) (AG) (AG) (AU) (AU) (AU) (AG) (AU) (AG)
                 (AG) (AU) (AG) (AU) (AG) (AG) (AU) (AU) (AU) (AG)
                 (AU) (AG) (AG) (AU) (AU) (AG) (AG) (AU) (AG) (AU)
                 (AU) (AG) (AU) (AG) (AG) (AG) (AU) (AU) (AU) (AU)
                 (AG) (AG) (AU) (AG) (AU) (AG) (AG) (AG) (AU) (AU)
                 (AU) (AG) (AG) (AU) (AU) (AG) (AU) (AG) (AG) (AU)
                 (AU) (AU) (AG) (AG) (AU) (AG) (AU) (AG) (AU) (AG)
                 (AG) (AU) (AU) (AG) (AG) (AU) (AU) (AG) (AG) (AU)
                 (AG) (AU) (AG) (AU) (AU) (AU) (AG) (AG) (AG) (AU)
                 (AU) (AG) (AU) (AG) (AG) (AU) (AG) (AG) (AG) (AU)
                 (AU) (AG) (AU) (AU) (AU) (AU) (AG) (AU) (AG) (AG)
                 (AG) (AU) (AG) (AU) (AG) (AG) (AU) (AU) (AU) (AG)
                 (AG) (AU) (AG) (AU) (AG) (AU) (AU) (AG) (AG) (AU)
 Beta  Orbitals:
       Occupied  (AG) (AU) (AG) (AU) (AG) (AU) (AU) (AG) (AU) (AG)
                 (AG) (AU) (AU) (AG) (AG) (AU) (AU) (AG) (AG) (AU)
                 (AG) (AU) (AG) (AG) (AU) (AU) (AU) (AU) (AG) (AG)
                 (AG) (AG) (AU) (AU)
       Virtual   (AG) (AU) (AU) (AG) (AG) (AG) (AG) (AU) (AU) (AU)
                 (AG) (AU) (AG) (AG) (AG) (AU) (AG) (AU) (AU) (AU)
                 (AG) (AU) (AU) (AU) (AU) (AG) (AG) (AG) (AG) (AG)
                 (AU) (AU) (AU) (AG) (AG) (AU) (AU) (AG) (AU) (AG)
                 (AG) (AU) (AU) (AG) (AG) (AU) (AU) (AU) (AG) (AU)
                 (AG) (AG) (AU) (AG) (AG) (AU) (AG) (AU) (AU) (AU)
                 (AG) (AU) (AG) (AG) (AU) (AU) (AG) (AG) (AU) (AU)
                 (AG) (AU) (AG) (AU) (AG) (AU) (AG) (AG) (AU) (AU)
                 (AG) (AU) (AG) (AU) (AG) (AU) (AG) (AG) (AG) (AU)
                 (AU) (AU) (AG) (AG) (AU) (AU) (AG) (AU) (AG) (AG)
                 (AU) (AU) (AU) (AG) (AG) (AU) (AG) (AU) (AG) (AU)
                 (AG) (AG) (AU) (AU) (AG) (AG) (AU) (AU) (AG) (AG)
                 (AU) (AG) (AU) (AG) (AU) (AU) (AU) (AG) (AG) (AG)
                 (AU) (AU) (AG) (AU) (AG) (AG) (AU) (AG) (AG) (AU)
                 (AG) (AU) (AG) (AU) (AU) (AU) (AU) (AG) (AU) (AG)
                 (AG) (AG) (AU) (AG) (AU) (AG) (AG) (AU) (AU) (AU)
                 (AG) (AG) (AU) (AG) (AU) (AG) (AU) (AU) (AG) (AG)
                 (AU)
 Initial guess <Sx>= 0.0000 <Sy>= 0.0000 <Sz>= 0.5000 <S**2>= 0.7591 S= 0.5046
 ExpMin= 4.38D-02 ExpMax= 3.05D+03 ExpMxC= 4.57D+02 IAcc=3 IRadAn=         5 AccDes= 0.00D+00
 Harris functional with IExCor=  402 and IRadAn=       5 diagonalized for initial guess.
 HarFok:  IExCor=  402 AccDes= 0.00D+00 IRadAn=         5 IDoV= 1 UseB2=F ITyADJ=14
 ICtDFT=  3500011 ScaDFX=  1.000000  1.000000  1.000000  1.000000
 FoFCou: FMM=F IPFlag=           0 FMFlag=      100000 FMFlg1=           0
         NFxFlg=           0 DoJE=T BraDBF=F KetDBF=T FulRan=T
         wScrn=  0.000000 ICntrl=       500 IOpCl=  0 I1Cent=   200000004 NGrid=           0
         NMat0=    1 NMatS0=      1 NMatT0=    0 NMatD0=    1 NMtDS0=    0 NMtDT0=    0
 Petite list used in FoFCou.
 Requested convergence on RMS density matrix=1.00D-08 within 128 cycles.
 Requested convergence on MAX density matrix=1.00D-06.
 Requested convergence on             energy=1.00D-06.
 No special actions if energy rises.
 SCF Done:  E(UB3LYP) =  -385.868620804     A.U. after   18 cycles
            NFock= 18  Conv=0.73D-08     -V/T= 2.0075
 <Sx>= 0.0000 <Sy>= 0.0000 <Sz>= 0.5000 <S**2>= 0.7596 S= 0.5048
 <L.S>=  0.00000000000    
 Annihilation of the first spin contaminant:
 S**2 before annihilation     0.7596,   after     0.7501
 Calling FoFJK, ICntrl=      2127 FMM=F ISym2X=1 I1Cent= 0 IOpClX= 1 NMat=1 NMatS=1 NMatT=0.
 ***** Axes restored to original set *****
 -------------------------------------------------------------------
 Center     Atomic                   Forces (Hartrees/Bohr)
 Number     Number              X              Y              Z
 -------------------------------------------------------------------
      1        6           0.001366353   -0.026712591   -0.035961727
      2        1          -0.024492010   -0.026268164    0.025377946
      3        6          -0.010476859   -0.046427710   -0.031466669
      4        6          -0.001366353    0.026712591    0.035961727
      5        6          -0.003571111   -0.010768916   -0.005125649
      6        6           0.003571111    0.010768916    0.005125649
      7        1          -0.017175995   -0.052783990   -0.023215190
      8        1           0.012573786   -0.013146896   -0.045631947
      9        1           0.019443583    0.058608864    0.024782839
     10        6           0.023782568    0.057142015    0.012053995
     11        1          -0.019443583   -0.058608864   -0.024782839
     12        1          -0.012573786    0.013146896    0.045631947
     13        6          -0.023782568   -0.057142015   -0.012053995
     14        1           0.017175995    0.052783990    0.023215190
     15        6           0.021852220    0.034082681   -0.009091873
     16        6          -0.021852220   -0.034082681    0.009091873
     17        1           0.024492010    0.026268164   -0.025377946
     18        6           0.010476859    0.046427710    0.031466669
 -------------------------------------------------------------------
 Cartesian Forces:  Max     0.058608864 RMS     0.029509276

 GradGradGradGradGradGradGradGradGradGradGradGradGradGradGradGradGradGrad
 Berny optimization.
 Using GEDIIS/GDIIS optimizer.
 FormGI is forming the generalized inverse of G from B-inverse, IUseBI=4.
 Internal  Forces:  Max     0.066523395 RMS     0.016744588
 Search for a local minimum.
 Step number   2 out of a maximum of  103
 All quantities printed in internal units (Hartrees-Bohrs-Radians)
 Mixed Optimization -- RFO/linear search
 Update second derivatives using D2CorX and points    1    2
 DE= -7.44D-02 DEPred=-7.89D-02 R= 9.44D-01
[...]
 ,-0.1297201,-0.005099,-0.1032664,-0.1607043,-0.1504622,0.0268752,-0.08
 81803,-0.0031759,0.1044904,-0.0234889,0.1277972,-0.0219447,0.0520923,-
 0.0912405,0.1294735,-0.0875173,-0.2393849,0.0970363,-0.1121584,0.02828
 44,-0.1385859,-0.1676263,-0.0755874,-0.0036681,-0.137888,0.0089856,-0.
 3772001,0.0928124,0.3350684,-0.2390268,-0.1592618,0.711105,-0.0641489,
 -0.070045,-0.2161231,0.0970363,-0.1121584,0.0282844,-0.1385859,-0.1676
 263,-0.0755874,-0.0036681,-0.137888,0.0089856,0.1044904,-0.0234889,0.1
 277972,-0.0219447,0.0520923,-0.0912405,0.1294736,-0.0875172,-0.2393849
 ,-0.3772001,0.0928125,0.3350684,-0.2390269,-0.1592618,0.711105,-0.0641
 489,-0.070045,-0.2161231,0.1021998,-0.1297201,-0.005099,-0.1032664,-0.
 1607043,-0.1504622,0.0268752,-0.0881803,-0.0031759,-0.2494211,0.033279
 7,-0.055604,0.1468117,0.0113355,0.0167239,0.0809831,0.2838954,-0.13851
 8,-0.2494211,0.0332797,-0.055604,0.1468117,0.0113355,0.0167239,0.08098
 31,0.2838955,-0.138518,0.0273483,-0.1565489,0.1494574,-0.1581726,-0.05
 30058,0.1032368,0.1476498,0.0995515,-0.0571267,-0.2285919,0.0200935,-0
 .1027126,0.3516116,0.042895,-0.4367948,0.2966618,0.3444649,-0.5663399\
 Polar=126.088647,30.6260121,140.9704413,-54.7618524,-7.3472646,207.296
 6111\Quadrupole=0.0823422,3.3408345,-3.4231767,0.0186266,3.2116447,2.2
 483124\PG=CI [X(C10H8)]\NImag=0\\0.26088002,0.18066024,0.55258930,-0.1
 5651548,0.11677012,0.61109119,-0.00413106,-0.00432273,0.00641314,0.120
 22546,-0.01606267,-0.01426178,0.01970527,0.11382597,0.16398908,-0.0077
 2564,-0.00796194,0.00941631,-0.09940789,-0.09466620,0.14007735,-0.1169
 5563,-0.08164592,0.08288863,0.00430707,-0.00172076,0.00092676,0.256171
 19,-0.09663640,-0.16930299,0.07192054,-0.00289622,-0.00230881,-0.00266
 852,0.21161200,0.57029124,0.06486471,0.03661635,-0.14868151,-0.0004913
 7,-0.00544055,0.00018359,-0.14225325,0.08274127,0.52225862,-0.00173327
 ,-0.00789997,-0.00492399,-0.00013651,0.00034815,0.00013350,-0.00264294
 ,0.00589631,0.00987449,0.26088002,-0.00789997,-0.01718358,-0.00233607,
 0.00027357,0.00028054,0.00000182,0.00480715,0.01043064,0.00299890,0.18
 066024,0.55258930,-0.00492399,-0.00233607,0.00900188,0.00004461,-0.000
 17206,-0.00056989,0.00856394,0.00043109,-0.02111792,-0.15651548,0.1167
 7012,0.61109119,-0.00043435,-0.00623042,-0.01499474,0.00427657,-0.0007
 6498,0.00181130,0.00339776,0.00502879,0.01004944,-0.01366278,-0.003585
 60,0.03200463,0.29310121,-0.00640208,-0.02035924,-0.00504639,-0.000250
 65,0.00149162,-0.00415945,0.00675013,-0.00326650,-0.02597412,0.0025412
 7,0.02420513,0.02100114,0.15533149,0.51505180,-0.01520274,-0.00545332,
 0.02561813,0.00243103,-0.00294593,-0.00383425,0.01212831,-0.02191978,-
 0.04984258,0.03937883,0.03544559,-0.04834535,-0.13157956,0.06418187,0.
 54506717,-0.01366278,-0.00358560,0.03200463,-0.00020486,0.00026557,-0.
 00040321,-0.07581197,-0.00614362,0.03685042,-0.00043435,-0.00623042,-0
 .01499474,-0.08339834,-0.03828793,-0.02311609,0.29310121,0.00254127,0.
 02420513,0.02100114,0.00038898,-0.00023346,-0.00058317,-0.00779890,-0.
 11830096,-0.05543850,-0.00640208,-0.02035924,-0.00504639,-0.03828793,-
 0.19371385,-0.05438461,0.15533149,0.51505180,0.03937883,0.03544559,-0.
 04834535,-0.00025270,-0.00029241,-0.00026307,0.03486816,-0.05928830,-0
 .21057772,-0.01520274,-0.00545332,0.02561813,-0.02311609,-0.05438461,-
 0.08463522,-0.13157956,0.06418187,0.54506717,0.00006409,0.00000522,0.0
 0014521,0.00003660,-0.00000871,-0.00002552,0.00036698,0.00020133,-0.00
 025463,-0.00402682,-0.01418097,-0.00958877,0.00416568,0.00717704,0.002
 96951,0.00281017,-0.00141374,0.00345705,0.05353211,-0.00014111,0.00004
 785,0.00024200,0.00004759,0.00003284,-0.00010917,-0.00027265,-0.000576
 96,-0.00024074,-0.00264644,-0.01451237,-0.01021265,-0.00342531,-0.0064
 6446,-0.00183826,-0.00082322,0.00219440,-0.00143875,0.08785230,0.27376
 860,-0.00002867,-0.00009713,0.00007320,0.00004219,0.00002360,-0.000040
 83,-0.00082716,-0.00136094,0.00046536,0.00430181,0.01696125,0.00943404
 ,-0.00979409,-0.02680228,-0.00744222,0.00416563,-0.00004981,-0.0048716
 2,0.01953731,0.10230545,0.09406471,-0.00024921,-0.00011800,-0.00007334
 ,0.00011834,-0.00007548,0.00018581,-0.00037699,0.00044390,-0.00022217,
 -0.05365054,0.00629895,0.07469587,0.00203380,-0.00466742,0.00239092,-0
 .00046997,-0.00019769,-0.00033671,-0.00157797,0.00104303,-0.00142385,0
 .05098809,-0.00002021,-0.00036259,-0.00012438,-0.00011075,0.00007104,0
 .00006249,0.00036104,0.00017139,0.00019673,0.00594604,-0.07016458,-0.0
 6816008,-0.00415192,-0.00155338,0.00136677,-0.00007617,-0.00059650,0.0
 0007611,0.00157018,0.00034140,-0.00001726,-0.00684248,0.06983836,0.000
 04392,0.00010384,-0.00019853,0.00014333,-0.00002045,-0.00012649,-0.000
 32356,0.00000394,0.00006818,0.07426097,-0.06899243,-0.28298605,0.00301
 147,0.00258066,0.00145240,-0.00018469,0.00036503,0.00036355,-0.0007894
 0,0.00122464,0.00061734,-0.08147215,0.07621438,0.30338939,-0.00046450,
 0.00047211,-0.00004399,0.00007278,-0.00001352,0.00007873,-0.00155392,0
 .00075593,-0.00199246,0.00231221,-0.00106804,0.00266614,0.00168508,-0.
 00278630,0.00445687,-0.00269455,-0.01538090,-0.00801448,-0.00053674,0.
 00025186,-0.00036842,0.00090827,-0.00001475,0.00057505,0.05389201,0.00
 005352,0.00000162,0.00074751,-0.00006785,0.00004442,0.00007715,0.00202
 191,0.00018727,-0.00117558,-0.00021361,0.00181669,-0.00211383,-0.00337
 604,0.00066161,0.00273083,-0.00477789,-0.01579394,-0.00987751,0.000270
 35,-0.00029996,-0.00000847,-0.00058427,-0.00024620,-0.00031615,0.08854
 052,0.27438171,-0.00055252,-0.00024569,0.00028161,0.00001336,-0.000050
 70,0.00002059,-0.00046931,0.00179946,0.00048862,0.00369216,-0.00010916
 ,-0.00483634,0.00374837,0.00134069,-0.00221591,0.00475072,0.01509473,0
 .00874616,-0.00034596,0.00003533,0.00003564,-0.00011064,-0.00165854,-0
 .00057505,0.01944642,0.10139412,0.09314982,0.01050387,0.00497503,0.010
 06418,-0.00364448,0.00515250,0.01581876,-0.00328531,0.00391781,-0.0115
 1858,0.01088827,0.00746204,-0.01038583,-0.11316504,-0.07119028,0.04651
 623,-0.01522650,-0.02740390,0.01489388,-0.00166623,0.00055949,-0.00196
 462,0.00001884,0.00031186,0.00006561,0.00017280,-0.00013398,-0.0002045
 3,0.24103553,-0.00404593,-0.01742166,-0.02618167,-0.00584215,0.0067498
 6,0.02135453,0.01074121,0.00600348,-0.00583446,0.00086699,-0.00374486,
 -0.00975656,-0.07284246,-0.16904589,0.03671493,-0.02568383,-0.02857222
 ,0.01997692,0.00183120,0.00003549,-0.00090277,0.00068967,0.00070257,-0
 .00064256,-0.00061107,-0.00083980,0.00023653,0.18535027,0.54991368,-0.
 00080327,-0.04739856,-0.04295630,0.00258706,-0.00454187,-0.01111989,-0
 .00330147,0.01024210,0.00991853,-0.01831910,-0.02527840,0.01538477,0.0
 4454479,0.03284916,-0.12242218,0.01696138,0.02402833,-0.00591471,-0.00
 043748,0.00207778,0.00075002,0.00051750,0.00024718,-0.00104039,-0.0007
 7762,-0.00088316,0.00092256,-0.13832294,0.11998177,0.55784336,0.002312
 21,-0.00106804,0.00266614,-0.00154711,0.00109817,-0.00143266,0.0002482
 9,-0.00008826,0.00022031,-0.00046450,0.00047211,-0.00004399,-0.0026945
 5,-0.01538090,-0.00801448,0.00168508,-0.00278630,0.00445687,0.00038075
 ,0.00035818,0.00071893,0.00000287,-0.00001123,0.00005096,-0.00049072,-
 0.00011106,0.00002618,-0.05523802,-0.08048131,-0.01812149,0.05389201,-
 0.00021361,0.00181669,-0.00211383,0.00162500,0.00038534,-0.00009503,-0
 .00010800,0.00057405,0.00047831,0.00005352,0.00000162,0.00074751,-0.00
 477789,-0.01579394,-0.00987751,-0.00337604,0.00066161,0.00273083,-0.00
 030024,0.00076838,0.00101811,-0.00006747,-0.00001297,0.00010680,-0.000
 11106,-0.00042102,0.00026373,-0.08046041,-0.25600044,-0.09239801,0.088
 54052,0.27438171,0.00369216,-0.00010916,-0.00483634,-0.00079727,0.0011
 4592,0.00054268,0.00019884,0.00043955,0.00044624,-0.00055252,-0.000245
 69,0.00028161,0.00475072,0.01509473,0.00874616,0.00374837,0.00134069,-
 0.00221591,-0.00006987,-0.00051780,0.00003475,-0.00001690,-0.00002577,
 0.00003869,0.00002618,0.00026373,-0.00016705,-0.01810002,-0.09236353,-
 0.09034842,0.01944642,0.10139412,0.09314982,-0.05365054,0.00629895,0.0
 7469587,-0.00250757,0.00208826,-0.00129017,-0.00247290,0.00719653,0.01
 551048,-0.00024921,-0.00011800,-0.00007334,-0.00046997,-0.00019769,-0.
 00033671,0.00203380,-0.00466742,0.00239092,0.00008369,0.00000548,0.000
 07590,0.00007569,-0.00003121,0.00005761,0.00000287,-0.00006747,-0.0000
 1690,0.00336463,-0.00335718,0.00117231,0.00090827,-0.00058427,-0.00011
 064,0.05098809,0.00594604,-0.07016458,-0.06816008,0.00160358,0.0001117
 7,0.00132306,-0.00380185,0.00834144,0.01846213,-0.00002021,-0.00036259
 ,-0.00012438,-0.00007617,-0.00059650,0.00007611,-0.00415192,-0.0015533
 8,0.00136677,-0.00004877,0.00005928,0.00005020,-0.00003121,0.00003079,
 -0.00002916,-0.00001123,-0.00001297,-0.00002577,-0.00453295,-0.0035845
 8,-0.00035201,-0.00001475,-0.00024620,-0.00165854,-0.00684248,0.069838
 36,0.07426097,-0.06899243,-0.28298605,-0.00187586,0.00017686,0.0005055
 1,0.00228315,-0.00743129,-0.01387944,0.00004392,0.00010384,-0.00019853
 ,-0.00018469,0.00036503,0.00036355,0.00301147,0.00258066,0.00145240,0.
 00001050,-0.00007766,-0.00000522,0.00005761,-0.00002916,-0.00005448,0.
 00005096,0.00010680,0.00003869,-0.00024675,-0.00312254,0.00240261,0.00
 057505,-0.00031615,-0.00057505,-0.08147215,0.07621438,0.30338939,0.010
 88827,0.00746204,-0.01038583,-0.00043175,0.00034649,-0.00020924,-0.009
 86030,-0.00840555,0.04484351,0.01050387,0.00497503,0.01006418,-0.01522
 650,-0.02740390,0.01489388,-0.11316504,-0.07119028,0.04651623,0.000452
 89,0.00026561,0.00016674,0.00336463,-0.00453295,-0.00024675,-0.0552380
 2,-0.08046041,-0.01810002,0.01487306,0.00351370,-0.01556455,0.00017280
 ,-0.00013398,-0.00020453,0.00001884,0.00031186,0.00006561,0.24103553,0
 .00086699,-0.00374486,-0.00975656,0.00026401,0.00009624,0.00033492,-0.
 00484571,0.02210208,0.02178653,-0.00404593,-0.01742166,-0.02618167,-0.
 02568383,-0.02857222,0.01997692,-0.07284246,-0.16904589,0.03671493,0.0
 0025158,0.00085170,-0.00002482,-0.00335718,-0.00358458,-0.00312254,-0.
 08048131,-0.25600044,-0.09236353,0.00351370,-0.00373956,-0.02056536,-0
 .00061107,-0.00083980,0.00023653,0.00068967,0.00070257,-0.00064256,0.1
 8535027,0.54991368,-0.01831910,-0.02527840,0.01538477,-0.00030990,0.00
 014048,0.00019757,0.04913441,0.03017979,-0.06592237,-0.00080327,-0.047
 39856,-0.04295630,0.01696138,0.02402833,-0.00591471,0.04454479,0.03284
 916,-0.12242218,0.00014636,-0.00006672,-0.00003648,0.00117231,-0.00035
 201,0.00240261,-0.01812149,-0.09239801,-0.09034842,-0.01556455,-0.0205
 6536,0.01839443,-0.00077762,-0.00088316,0.00092256,0.00051750,0.000247
 18,-0.00104039,-0.13832294,0.11998177,0.55784336,-0.00402682,-0.014180
 97,-0.00958877,0.00048698,-0.00131766,-0.00000214,-0.05487468,-0.07977
 514,-0.01819000,0.00006409,0.00000522,0.00014521,0.00281017,-0.0014137
 4,0.00345705,0.00416568,0.00717704,0.00296951,-0.00031377,0.00019726,-
 0.00001976,0.00008369,-0.00004877,0.00001050,0.00038075,-0.00030024,-0
 .00006987,0.00045289,0.00025158,0.00014636,-0.00053674,0.00027035,-0.0
 0034596,-0.00157797,0.00157018,-0.00078940,-0.00166623,0.00183120,-0.0
 0043748,0.05353211,-0.00264644,-0.01451237,-0.01021265,-0.00074759,-0.
 00081840,-0.00061971,-0.07978649,-0.25538912,-0.09327767,-0.00014111,0
 .00004785,0.00024200,-0.00082322,0.00219440,-0.00143875,-0.00342531,-0
 .00646446,-0.00183826,0.00019726,-0.00018059,-0.00017295,0.00000548,0.
 00005928,-0.00007766,0.00035818,0.00076838,-0.00051780,0.00026561,0.00
 085170,-0.00006672,0.00025186,-0.00029996,0.00003533,0.00104303,0.0003
 4140,0.00122464,0.00055949,0.00003549,0.00207778,0.08785230,0.27376860
 ,0.00430181,0.01696125,0.00943404,0.00068386,0.00072245,0.00041777,-0.
 01820728,-0.09331593,-0.09126248,-0.00002867,-0.00009713,0.00007320,0.
 00416563,-0.00004981,-0.00487162,-0.00979409,-0.02680228,-0.00744222,-
 0.00001976,-0.00017295,-0.00058458,0.00007590,0.00005020,-0.00000522,0
 .00071893,0.00101811,0.00003475,0.00016674,-0.00002482,-0.00003648,-0.
 00036842,-0.00000847,0.00003564,-0.00142385,-0.00001726,0.00061734,-0.
 00196462,-0.00090277,0.00075002,0.01953731,0.10230545,0.09406471,-0.08
 501553,-0.08343882,-0.02703189,-0.11633333,-0.10294859,0.09092599,-0.0
 0957822,-0.03000349,0.01525939,-0.00154530,-0.00246381,0.00607168,-0.0
 1169281,-0.00015563,0.03149192,0.00529091,0.00374651,-0.01648043,-0.00
 036601,0.00064294,-0.00006924,-0.00036370,-0.00012165,0.00010342,0.000
 11368,0.00009003,0.00013216,-0.07116509,-0.00192717,0.07103743,0.00273
 681,-0.00240050,-0.01134120,0.00407461,0.00997125,0.00428642,-0.007627
 15,-0.00387179,0.00985657,0.00098229,-0.00338095,0.00301071,0.28290772
 ,-0.06903206,-0.27708611,-0.10605706,-0.10329932,-0.15541315,0.0865495
 3,-0.03898865,-0.04471376,0.02333748,0.00678798,0.01502798,-0.00065692
 ,0.00597824,0.02687680,0.01612776,0.00356531,-0.01258097,-0.01918190,0
 .00022005,0.00013204,0.00050884,-0.00004787,-0.00002885,0.00038944,-0.
 00005194,0.00011540,0.00011950,-0.01694936,-0.10717400,-0.04096887,0.0
 0914159,-0.00532215,-0.02689837,-0.00177675,-0.00311839,-0.00053335,-0
 .00277836,0.00366792,0.01270638,-0.00253127,0.00000990,0.00116246,0.21
 912696,0.58269604,-0.00968462,-0.07215644,-0.11781039,0.09049703,0.085
 71554,-0.13513564,0.00442829,0.00211316,0.00440039,0.01720564,0.021131
 26,-0.01279883,0.03887793,0.03059885,-0.05300399,-0.01670369,-0.019602
 15,0.01212140,-0.00057857,-0.00048302,0.00005225,0.00019406,0.00056208
 ,-0.00003222,-0.00004063,-0.00022106,-0.00004462,0.05297680,-0.0762883
 4,-0.25666867,0.00255218,0.00027226,-0.00651998,-0.00985454,-0.0281939
 0,-0.00993980,0.01117132,0.01529650,-0.00938444,0.00403615,0.00316991,
 -0.00170165,-0.16221133,0.06232529,0.55912920,-0.00154530,-0.00246381,
 0.00607168,-0.00021497,-0.00005823,-0.00008178,0.00506717,-0.00267420,
 -0.00887641,-0.08501553,-0.08343882,-0.02703189,0.00529091,0.00374651,
 -0.01648043,-0.01169281,-0.00015563,0.03149192,0.00098229,-0.00338095,
 0.00301071,0.00407461,0.00997125,0.00428642,0.00273681,-0.00240050,-0.
 01134120,-0.00762715,-0.00387179,0.00985657,0.00011368,0.00009003,0.00
 013216,-0.00036370,-0.00012165,0.00010342,-0.07116509,-0.00192717,0.07
 103743,-0.00036601,0.00064294,-0.00006924,0.00272891,-0.00013284,-0.00
 608343,0.28290772,0.00678798,0.01502798,-0.00065692,0.00003986,-0.0003
 1659,-0.00020865,-0.00927158,-0.01164914,0.00461030,-0.06903206,-0.277
 08611,-0.10605706,0.00356531,-0.01258097,-0.01918190,0.00597824,0.0268
 7680,0.01612776,-0.00253127,0.00000990,0.00116246,-0.00177675,-0.00311
 839,-0.00053335,0.00914159,-0.00532215,-0.02689837,-0.00277836,0.00366
 792,0.01270638,-0.00005194,0.00011540,0.00011950,-0.00004787,-0.000028
 85,0.00038944,-0.01694936,-0.10717400,-0.04096887,0.00022005,0.0001320
 4,0.00050884,-0.00013284,-0.01112296,-0.01333185,0.21912696,0.58269604
 ,0.01720564,0.02113126,-0.01279883,0.00003606,0.00002024,-0.00027810,-
 0.01681866,-0.01092833,0.02911782,-0.00968462,-0.07215644,-0.11781039,
 -0.01670369,-0.01960215,0.01212140,0.03887793,0.03059885,-0.05300399,0
 .00403615,0.00316991,-0.00170165,-0.00985454,-0.02819390,-0.00993980,0
 .00255218,0.00027226,-0.00651998,0.01117132,0.01529650,-0.00938444,-0.
 00004063,-0.00022106,-0.00004462,0.00019406,0.00056208,-0.00003222,0.0
 5297680,-0.07628834,-0.25666867,-0.00057857,-0.00048302,0.00005225,-0.
 00608343,-0.01333185,-0.00150273,-0.16221133,0.06232529,0.55912920,-0.
 00013651,0.00027357,0.00004461,0.00005693,-0.00006387,0.00006241,-0.00
 042908,-0.00046743,0.00018094,-0.00413106,-0.00432273,0.00641314,-0.00
 020486,0.00038898,-0.00025270,0.00427657,-0.00025065,0.00243103,0.0004
 8698,-0.00074759,0.00068386,-0.00250757,0.00160358,-0.00187586,-0.0015
 4711,0.00162500,-0.00079727,-0.00043175,0.00026401,-0.00030990,0.00007
 278,-0.00006785,0.00001336,0.00011834,-0.00011075,0.00014333,-0.003644
 48,-0.00584215,0.00258706,0.00003660,0.00004759,0.00004219,-0.00021497
 ,0.00003986,0.00003606,-0.11633333,-0.10329932,0.09049703,0.12022546,0
 .00034815,0.00028054,-0.00017206,-0.00006387,0.00000524,0.00001719,-0.
 00009062,0.00009421,0.00046262,-0.01606267,-0.01426178,0.01970527,0.00
 026557,-0.00023346,-0.00029241,-0.00076498,0.00149162,-0.00294593,-0.0
 0131766,-0.00081840,0.00072245,0.00208826,0.00011177,0.00017686,0.0010
 9817,0.00038534,0.00114592,0.00034649,0.00009624,0.00014048,-0.0000135
 2,0.00004442,-0.00005070,-0.00007548,0.00007104,-0.00002045,0.00515250
 ,0.00674986,-0.00454187,-0.00000871,0.00003284,0.00002360,-0.00005823,
 -0.00031659,0.00002024,-0.10294859,-0.15541315,0.08571554,0.11382597,0
 .16398908,0.00013350,0.00000182,-0.00056989,0.00006241,0.00001719,-0.0
 0001024,0.00063500,0.00135117,0.00001704,-0.00772564,-0.00796194,0.009
 41631,-0.00040321,-0.00058317,-0.00026307,0.00181130,-0.00415945,-0.00
 383425,-0.00000214,-0.00061971,0.00041777,-0.00129017,0.00132306,0.000
 50551,-0.00143266,-0.00009503,0.00054268,-0.00020924,0.00033492,0.0001
 9757,0.00007873,0.00007715,0.00002059,0.00018581,0.00006249,-0.0001264
 9,0.01581876,0.02135453,-0.01111989,-0.00002552,-0.00010917,-0.0000408
 3,-0.00008178,-0.00020865,-0.00027810,0.09092599,0.08654953,-0.1351356
 4,-0.09940789,-0.09466620,0.14007735,-0.00264294,0.00480715,0.00856394
 ,-0.00042908,-0.00009062,0.00063500,0.00828348,-0.00796229,-0.01385481
 ,-0.11695563,-0.08164592,0.08288863,-0.07581197,-0.00779890,0.03486816
 ,0.00339776,0.00675013,0.01212831,-0.05487468,-0.07978649,-0.01820728,
 -0.00247290,-0.00380185,0.00228315,0.00024829,-0.00010800,0.00019884,-
 0.00986030,-0.00484571,0.04913441,-0.00155392,0.00202191,-0.00046931,-
 0.00037699,0.00036104,-0.00032356,-0.00328531,0.01074121,-0.00330147,0
 .00036698,-0.00027265,-0.00082716,0.00506717,-0.00927158,-0.01681866,-
 0.00957822,-0.03898865,0.00442829,0.00430707,-0.00172076,0.00092676,0.
 25617119,0.00589631,0.01043064,0.00043109,-0.00046743,0.00009421,0.001
 35117,-0.00796229,-0.01268757,-0.00430899,-0.09663640,-0.16930299,0.07
 192054,-0.00614362,-0.11830096,-0.05928830,0.00502879,-0.00326650,-0.0
 2191978,-0.07977515,-0.25538912,-0.09331593,0.00719653,0.00834144,-0.0
 0743129,-0.00008826,0.00057405,0.00043955,-0.00840555,0.02210208,0.030
 17979,0.00075593,0.00018727,0.00179946,0.00044390,0.00017139,0.0000039
 4,0.00391781,0.00600348,0.01024210,0.00020133,-0.00057696,-0.00136094,
 -0.00267420,-0.01164914,-0.01092833,-0.03000349,-0.04471376,0.00211316
 ,-0.00289622,-0.00230881,-0.00266852,0.21161200,0.57029124,0.00987449,
 0.00299890,-0.02111792,0.00018094,0.00046262,0.00001704,-0.01385481,-0
 .00430899,0.03391966,0.06486471,0.03661635,-0.14868151,0.03685042,-0.0
 5543850,-0.21057772,0.01004944,-0.02597412,-0.04984258,-0.01819000,-0.
 09327767,-0.09126248,0.01551048,0.01846213,-0.01387944,0.00022031,0.00
 047831,0.00044624,0.04484351,0.02178653,-0.06592237,-0.00199246,-0.001
 17558,0.00048862,-0.00022217,0.00019673,0.00006818,-0.01151858,-0.0058
 3446,0.00991853,-0.00025463,-0.00024074,0.00046536,-0.00887641,0.00461
 030,0.02911782,0.01525939,0.02333748,0.00440039,-0.00049137,-0.0054405
 5,0.00018359,-0.14225325,0.08274127,0.52225862\\0.00003094,0.00005193,
 0.00000151,0.00001940,0.00001036,-0.00001860,-0.00003805,-0.00002480,0
 .00003973,-0.00003094,-0.00005193,-0.00000151,0.00000543,0.00004856,-0
 .00000062,-0.00000543,-0.00004856,0.00000062,-0.00000807,-0.00000657,-
 0.00000238,0.00000644,0.00000037,0.00000359,-0.00000874,-0.00002113,0.
 00000223,-0.00003514,-0.00003919,0.00006854,0.00000874,0.00002113,-0.0
 0000223,-0.00000644,-0.00000037,-0.00000359,0.00003514,0.00003919,-0.0
 0006854,0.00000807,0.00000657,0.00000238,-0.00001076,-0.00003933,-0.00
 002941,0.00001076,0.00003933,0.00002941,-0.00001940,-0.00001036,0.0000
 1860,0.00003805,0.00002480,-0.00003973\\\@


 DEMOCRATS BUY MOST OF THE BOOKS THAT HAVE BEEN
 BANNED; REPUBLICANS FORM CENSORSHIP COMMITTEES AND
 READ THEM AS A GROUP.
 Job cpu time:       0 days  0 hours 15 minutes 41.7 seconds.
 Elapsed time:       0 days  0 hours  0 minutes 59.3 seconds.
 File lengths (MBytes):  RWF=    106 Int=      0 D2E=      0 Chk=      6 Scr=      1
 Normal termination of Gaussian 16 at Tue Oct  3 11:10:30 2023.
