 Entering Gaussian System, Link 0=g16
 Initial command:
 /home/wangzhe/g16/l1.exe "/home/wangzhe/g16/Scratch/Gau-28867.inp" -scrdir="/home/wangzhe/g16/Scratch/"
 Default is to use a total of  16 processors:
                               16 via shared-memory
                                1 via Linda
 Entering Link 1 = /home/wangzhe/g16/l1.exe PID=     28868.
  
 Copyright (c) 1988-2017, Gaussian, Inc.  All Rights Reserved.
  
 This is part of the Gaussian(R) 16 program.  It is based on
 the Gaussian(R) 09 system (copyright 2009, Gaussian, Inc.),
 the Gaussian(R) 03 system (copyright 2003, Gaussian, Inc.),
 the Gaussian(R) 98 system (copyright 1998, Gaussian, Inc.),
 the Gaussian(R) 94 system (copyright 1995, Gaussian, Inc.),
 the Gaussian 92(TM) system (copyright 1992, Gaussian, Inc.),
 the Gaussian 90(TM) system (copyright 1990, Gaussian, Inc.),
 the Gaussian 88(TM) system (copyright 1988, Gaussian, Inc.),
 the Gaussian 86(TM) system (copyright 1986, Carnegie Mellon
 University), and the Gaussian 82(TM) system (copyright 1983,
 Carnegie Mellon University). Gaussian is a federally registered
 trademark of Gaussian, Inc.
  
 This software contains proprietary and confidential information,
 including trade secrets, belonging to Gaussian, Inc.
  
 This software is provided under written license and may be
 used, copied, transmitted, or stored only in accord with that
 written license.
  
 The following legend is applicable only to US Government
 contracts under FAR:
  
                    RESTRICTED RIGHTS LEGEND
  
 Use, reproduction and disclosure by the US Government is
 subject to restrictions as set forth in subparagraphs (a)
 and (c) of the Commercial Computer Software - Restricted
 Rights clause in FAR 52.227-19.
  
 Gaussian, Inc.
 340 Quinnipiac St., Bldg. 40, Wallingford CT 06492
  
  
 ---------------------------------------------------------------
 Warning -- This program may not be used in any manner that
 competes with the business of Gaussian, Inc. or will provide
 assistance to any competitor of Gaussian, Inc.  The licensee
 of this program is prohibited from giving any competitor of
 Gaussian, Inc. access to this program.  By using this program,
 the user acknowledges that Gaussian, Inc. is engaged in the
 business of creating and licensing software in the field of
 computational chemistry and represents and warrants to the
 licensee that it is not a competitor of Gaussian, Inc. and that
 it will not use this program in any manner prohibited above.
 ---------------------------------------------------------------
  

 Cite this work as:
 Gaussian 16, Revision B.01,
 M. J. Frisch, G. W. Trucks, H. B. Schlegel, G. E. Scuseria, 
 M. A. Robb, J. R. Cheeseman, G. Scalmani, V. Barone, 
 G. A. Petersson, H. Nakatsuji, X. Li, M. Caricato, A. V. Marenich, 
 J. Bloino, B. G. Janesko, R. Gomperts, B. Mennucci, H. P. Hratchian, 
 J. V. Ortiz, A. F. Izmaylov, J. L. Sonnenberg, D. Williams-Young, 
 F. Ding, F. Lipparini, F. Egidi, J. Goings, B. Peng, A. Petrone, 
 T. Henderson, D. Ranasinghe, V. G. Zakrzewski, J. Gao, N. Rega, 
 G. Zheng, W. Liang, M. Hada, M. Ehara, K. Toyota, R. Fukuda, 
 J. Hasegawa, M. Ishida, T. Nakajima, Y. Honda, O. Kitao, H. Nakai, 
 T. Vreven, K. Throssell, J. A. Montgomery, Jr., J. E. Peralta, 
 F. Ogliaro, M. J. Bearpark, J. J. Heyd, E. N. Brothers, K. N. Kudin, 
 V. N. Staroverov, T. A. Keith, R. Kobayashi, J. Normand, 
 K. Raghavachari, A. P. Rendell, J. C. Burant, S. S. Iyengar, 
 J. Tomasi, M. Cossi, J. M. Millam, M. Klene, C. Adamo, R. Cammi, 
 J. W. Ochterski, R. L. Martin, K. Morokuma, O. Farkas, 
 J. B. Foresman, and D. J. Fox, Gaussian, Inc., Wallingford CT, 2016.
 
 ******************************************
 Gaussian 16:  ES64L-G16RevB.01 20-Dec-2017
                 3-Oct-2023 
 ******************************************
 %nprocshared=8
 Will use up to    8 processors via shared memory.
 %mem=10GB
 --------------------------
 # opt freq b3lyp/6-31+g(d)
 --------------------------
 1/18=20,19=15,26=3,38=1/1,3;
 2/9=110,12=2,17=6,18=5,40=1/2;
 3/5=1,6=6,7=11,11=2,25=1,30=1,71=1,74=-5/1,2,3;
 4//1;
 5/5=2,38=5/2;
 6/7=2,8=2,9=2,10=2,28=1/1;
 7//1,2,3,16;
 1/18=20,19=15,26=3/3(2);
 2/9=110/2;
 99//99;
 2/9=110/2;
 3/5=1,6=6,7=11,11=2,25=1,30=1,71=1,74=-5/1,2,3;
 4/5=5,16=3,69=1/1;
 5/5=2,38=5/2;
 7//1,2,3,16;
 1/18=20,19=15,26=3/3(-5);
 2/9=110/2;
 6/7=2,8=2,9=2,10=2,19=2,28=1/1;
 99/9=1/99;
 -----
 title
 -----
 Symbolic Z-matrix:
 Charge =  0 Multiplicity = 1
 C                    -2.96293  -1.37776   2.34412 
 H                    -3.91359  -3.24558   2.36511 
 C                    -2.19934  -0.51291   1.59119 
 C                    -1.08607  -1.59874  -2.34412 
 C                    -2.23158  -2.11439  -0.26514 
 C                    -1.81742  -0.86211   0.26514 
 H                    -2.14645  -3.30749  -1.93535 
 H                    -0.80423  -1.83888  -3.25105 
 H                    -0.76084   0.83759  -0.16848 
 C                    -3.0151   -2.98739   0.54127 
 H                    -3.28816  -3.81409   0.16848 
 H                    -3.24477  -1.13762   3.25105 
 C                    -1.0339    0.01089  -0.54127 
 H                    -1.90255   0.33099   1.93535 
 C                    -3.3759   -2.62057   1.81756 
 C                    -0.6731   -0.35593  -1.81756 
 H                    -0.13541   0.26908  -2.36511 
 C                    -1.84966  -2.46359  -1.59119 
 

 GradGradGradGradGradGradGradGradGradGradGradGradGradGradGradGradGradGrad
 Berny optimization.
 Initialization pass.
                           ----------------------------
                           !    Initial Parameters    !
                           ! (Angstroms and Degrees)  !
 --------------------------                            --------------------------
 ! Name  Definition              Value          Derivative Info.                !
 --------------------------------------------------------------------------------
 ! R1    R(1,3)                  1.3777         estimate D2E/DX2                !
 ! R2    R(1,12)                 0.9796         estimate D2E/DX2                !
 ! R3    R(1,15)                 1.4115         estimate D2E/DX2                !
 ! R4    R(2,15)                 0.9897         estimate D2E/DX2                !
 ! R5    R(3,6)                  1.4234         estimate D2E/DX2                !
 ! R6    R(3,14)                 0.9585         estimate D2E/DX2                !
 ! R7    R(4,8)                  0.9796         estimate D2E/DX2                !
 ! R8    R(4,16)                 1.4115         estimate D2E/DX2                !
 ! R9    R(4,18)                 1.3777         estimate D2E/DX2                !
 ! R10   R(5,6)                  1.4216         estimate D2E/DX2                !
 ! R11   R(5,10)                 1.4235         estimate D2E/DX2                !
 ! R12   R(5,18)                 1.4234         estimate D2E/DX2                !
 ! R13   R(6,13)                 1.4235         estimate D2E/DX2                !
 ! R14   R(7,18)                 0.9585         estimate D2E/DX2                !
 ! R15   R(9,13)                 0.9471         estimate D2E/DX2                !
 ! R16   R(10,11)                0.9471         estimate D2E/DX2                !
 ! R17   R(10,15)                1.3761         estimate D2E/DX2                !
 ! R18   R(13,16)                1.3761         estimate D2E/DX2                !
 ! R19   R(16,17)                0.9897         estimate D2E/DX2                !
 ! A1    A(3,1,12)             120.7677         estimate D2E/DX2                !
 ! A2    A(3,1,15)             120.7314         estimate D2E/DX2                !
 ! A3    A(12,1,15)            118.4922         estimate D2E/DX2                !
 ! A4    A(1,3,6)              120.2545         estimate D2E/DX2                !
 ! A5    A(1,3,14)             121.8769         estimate D2E/DX2                !
 ! A6    A(6,3,14)             117.8667         estimate D2E/DX2                !
 ! A7    A(8,4,16)             118.4922         estimate D2E/DX2                !
 ! A8    A(8,4,18)             120.7677         estimate D2E/DX2                !
 ! A9    A(16,4,18)            120.7314         estimate D2E/DX2                !
 ! A10   A(6,5,10)             119.2935         estimate D2E/DX2                !
 ! A11   A(6,5,18)             119.0407         estimate D2E/DX2                !
 ! A12   A(10,5,18)            121.6658         estimate D2E/DX2                !
 ! A13   A(3,6,5)              119.0407         estimate D2E/DX2                !
 ! A14   A(3,6,13)             121.6658         estimate D2E/DX2                !
 ! A15   A(5,6,13)             119.2935         estimate D2E/DX2                !
 ! A16   A(5,10,11)            118.1016         estimate D2E/DX2                !
 ! A17   A(5,10,15)            120.4139         estimate D2E/DX2                !
 ! A18   A(11,10,15)           121.4774         estimate D2E/DX2                !
 ! A19   A(6,13,9)             118.1016         estimate D2E/DX2                !
 ! A20   A(6,13,16)            120.4139         estimate D2E/DX2                !
 ! A21   A(9,13,16)            121.4774         estimate D2E/DX2                !
 ! A22   A(1,15,2)             120.5692         estimate D2E/DX2                !
 ! A23   A(1,15,10)            120.264          estimate D2E/DX2                !
 ! A24   A(2,15,10)            119.1577         estimate D2E/DX2                !
 ! A25   A(4,16,13)            120.264          estimate D2E/DX2                !
 ! A26   A(4,16,17)            120.5692         estimate D2E/DX2                !
 ! A27   A(13,16,17)           119.1577         estimate D2E/DX2                !
 ! A28   A(4,18,5)             120.2545         estimate D2E/DX2                !
 ! A29   A(4,18,7)             121.8769         estimate D2E/DX2                !
 ! A30   A(5,18,7)             117.8667         estimate D2E/DX2                !
 ! D1    D(12,1,3,6)          -178.7927         estimate D2E/DX2                !
 ! D2    D(12,1,3,14)            1.7072         estimate D2E/DX2                !
 ! D3    D(15,1,3,6)             0.1255         estimate D2E/DX2                !
 ! D4    D(15,1,3,14)         -179.3746         estimate D2E/DX2                !
 ! D5    D(3,1,15,2)           179.1273         estimate D2E/DX2                !
 ! D6    D(3,1,15,10)            0.2348         estimate D2E/DX2                !
 ! D7    D(12,1,15,2)           -1.9304         estimate D2E/DX2                !
 ! D8    D(12,1,15,10)         179.1771         estimate D2E/DX2                !
 ! D9    D(1,3,6,5)             -0.2035         estimate D2E/DX2                !
 ! D10   D(1,3,6,13)           179.7282         estimate D2E/DX2                !
 ! D11   D(14,3,6,5)           179.3163         estimate D2E/DX2                !
 ! D12   D(14,3,6,13)           -0.752          estimate D2E/DX2                !
 ! D13   D(8,4,16,13)         -179.1771         estimate D2E/DX2                !
 ! D14   D(8,4,16,17)            1.9304         estimate D2E/DX2                !
 ! D15   D(18,4,16,13)          -0.2348         estimate D2E/DX2                !
 ! D16   D(18,4,16,17)        -179.1273         estimate D2E/DX2                !
 ! D17   D(8,4,18,5)           178.7927         estimate D2E/DX2                !
 ! D18   D(8,4,18,7)            -1.7072         estimate D2E/DX2                !
 ! D19   D(16,4,18,5)           -0.1255         estimate D2E/DX2                !
 ! D20   D(16,4,18,7)          179.3746         estimate D2E/DX2                !
 ! D21   D(10,5,6,3)            -0.0666         estimate D2E/DX2                !
 ! D22   D(10,5,6,13)          180.0            estimate D2E/DX2                !
 ! D23   D(18,5,6,3)           180.0            estimate D2E/DX2                !
 ! D24   D(18,5,6,13)            0.0666         estimate D2E/DX2                !
 ! D25   D(6,5,10,11)          179.4728         estimate D2E/DX2                !
 ! D26   D(6,5,10,15)            0.4239         estimate D2E/DX2                !
 ! D27   D(18,5,10,11)          -0.5956         estimate D2E/DX2                !
 ! D28   D(18,5,10,15)        -179.6445         estimate D2E/DX2                !
 ! D29   D(6,5,18,4)             0.2035         estimate D2E/DX2                !
 ! D30   D(6,5,18,7)          -179.3163         estimate D2E/DX2                !
 ! D31   D(10,5,18,4)         -179.7282         estimate D2E/DX2                !
 ! D32   D(10,5,18,7)            0.752          estimate D2E/DX2                !
 ! D33   D(3,6,13,9)             0.5956         estimate D2E/DX2                !
 ! D34   D(3,6,13,16)          179.6445         estimate D2E/DX2                !
 ! D35   D(5,6,13,9)          -179.4728         estimate D2E/DX2                !
 ! D36   D(5,6,13,16)           -0.4239         estimate D2E/DX2                !
 ! D37   D(5,10,15,1)           -0.5092         estimate D2E/DX2                !
 ! D38   D(5,10,15,2)         -179.4172         estimate D2E/DX2                !
 ! D39   D(11,10,15,1)        -179.5254         estimate D2E/DX2                !
 ! D40   D(11,10,15,2)           1.5665         estimate D2E/DX2                !
 ! D41   D(6,13,16,4)            0.5092         estimate D2E/DX2                !
 ! D42   D(6,13,16,17)         179.4172         estimate D2E/DX2                !
 ! D43   D(9,13,16,4)          179.5254         estimate D2E/DX2                !
 ! D44   D(9,13,16,17)          -1.5665         estimate D2E/DX2                !
 --------------------------------------------------------------------------------
 Trust Radius=3.00D-01 FncErr=1.00D-07 GrdErr=1.00D-06 EigMax=2.50D+02 EigMin=1.00D-04
 Number of steps in this run=    103 maximum allowed number of steps=    108.
 GradGradGradGradGradGradGradGradGradGradGradGradGradGradGradGradGradGrad

                          Input orientation:                          
 ---------------------------------------------------------------------
 Center     Atomic      Atomic             Coordinates (Angstroms)
 Number     Number       Type             X           Y           Z
 ---------------------------------------------------------------------
      1          6           0       -2.962927   -1.377762    2.344123
      2          1           0       -3.913589   -3.245576    2.365112
      3          6           0       -2.199338   -0.512910    1.591185
      4          6           0       -1.086073   -1.598738   -2.344123
      5          6           0       -2.231579   -2.114387   -0.265138
      6          6           0       -1.817421   -0.862113    0.265138
      7          1           0       -2.146450   -3.307487   -1.935351
      8          1           0       -0.804233   -1.838882   -3.251047
      9          1           0       -0.760845    0.837587   -0.168478
     10          6           0       -3.015098   -2.987394    0.541270
     11          1           0       -3.288155   -3.814087    0.168478
     12          1           0       -3.244767   -1.137618    3.251047
     13          6           0       -1.033902    0.010894   -0.541270
     14          1           0       -1.902550    0.330987    1.935351
     15          6           0       -3.375902   -2.620570    1.817559
     16          6           0       -0.673098   -0.355930   -1.817559
     17          1           0       -0.135411    0.269076   -2.365112
     18          6           0       -1.849662   -2.463590   -1.591185
 ---------------------------------------------------------------------
                    Distance matrix (angstroms):
                    1          2          3          4          5
     1  C    0.000000
     2  H    2.095931   0.000000
     3  C    1.377662   3.317390   0.000000
     4  C    5.054807   5.734441   4.231434   0.000000
     5  C    2.808154   3.320687   2.451877   2.429045   0.000000
     6  C    2.429045   3.805877   1.423448   2.808154   1.421586
     7  H    4.764910   4.649795   4.499879   2.052150   2.054348
     8  H    6.014858   6.571767   5.210732   0.979598   3.320974
     9  H    4.008754   5.747268   2.643770   3.282512   3.299478
    10  C    2.417419   2.049474   2.809067   3.738315   1.423495
    11  H    3.282512   2.353630   3.755980   4.008754   2.047769
    12  H    0.979598   2.382370   2.058718   6.014858   3.787371
    13  C    3.738315   5.229173   2.485956   2.417419   2.455096
    14  H    2.052150   4.125624   0.958486   4.764910   3.306095
    15  C    1.411520   0.989723   2.424413   4.858710   2.429676
    16  C    4.858710   6.028729   3.738127   1.411520   2.816211
    17  H    5.734441   7.000173   4.530296   2.095931   3.805877
    18  C    4.231434   4.530296   3.748987   1.377662   1.423448
                    6          7          8          9         10
     6  C    0.000000
     7  H    3.306095   0.000000
     8  H    3.787371   2.385247   0.000000
     9  H    2.047769   4.714168   4.082597   0.000000
    10  C    2.455096   2.643986   4.537474   4.496207   0.000000
    11  H    3.299478   2.446677   4.665239   5.304612   0.947078
    12  H    3.320974   5.728294   6.980344   4.665239   3.288968
    13  C    1.423495   3.767343   3.288968   0.947078   3.753234
    14  H    2.054348   5.317923   5.728294   2.446677   3.767343
    15  C    2.816211   4.008459   5.737185   4.768828   1.376101
    16  C    2.429676   3.300959   2.066695   2.037561   4.239534
    17  H    3.320687   4.125624   2.382370   2.353630   5.229173
    18  C    2.451877   0.958486   2.058718   3.755980   2.485956
                   11         12         13         14         15
    11  H    0.000000
    12  H    4.082597   0.000000
    13  C    4.496207   4.537474   0.000000
    14  H    4.714168   2.385247   2.643986   0.000000
    15  C    2.037561   2.066695   4.239534   3.300959   0.000000
    16  C    4.768828   5.737185   1.376101   4.008459   5.064369
    17  H    5.747268   6.571767   2.049474   4.649795   6.028729
    18  C    2.643770   5.210732   2.809067   4.499879   3.738127
                   16         17         18
    16  C    0.000000
    17  H    0.989723   0.000000
    18  C    2.424413   3.317390   0.000000
 Stoichiometry    C10H8
 Framework group  CI[X(C10H8)]
 Deg. of freedom    24
 Full point group                 CI      NOp   2
 Largest Abelian subgroup         CI      NOp   2
 Largest concise Abelian subgroup CI      NOp   2
                         Standard orientation:                         
 ---------------------------------------------------------------------
 Center     Atomic      Atomic             Coordinates (Angstroms)
 Number     Number       Type             X           Y           Z
 ---------------------------------------------------------------------
      1          6           0       -0.938427    0.110488    2.344123
      2          1           0       -1.889089   -1.757326    2.365112
      3          6           0       -0.174838    0.975340    1.591185
      4          6           0        0.938427   -0.110488   -2.344123
      5          6           0       -0.207079   -0.626137   -0.265138
      6          6           0        0.207079    0.626137    0.265138
      7          1           0       -0.121950   -1.819237   -1.935351
      8          1           0        1.220267   -0.350632   -3.251047
      9          1           0        1.263655    2.325837   -0.168478
     10          6           0       -0.990598   -1.499144    0.541270
     11          1           0       -1.263655   -2.325837    0.168478
     12          1           0       -1.220267    0.350632    3.251047
     13          6           0        0.990598    1.499144   -0.541270
     14          1           0        0.121950    1.819237    1.935351
     15          6           0       -1.351402   -1.132320    1.817559
     16          6           0        1.351402    1.132320   -1.817559
     17          1           0        1.889089    1.757326   -2.365112
     18          6           0        0.174838   -0.975340   -1.591185
 ---------------------------------------------------------------------
 Rotational constants (GHZ):           3.1816529           1.2417012           0.8931421
 Standard basis: 6-31+G(d) (6D, 7F)
 There are   103 symmetry adapted cartesian basis functions of AG  symmetry.
 There are   103 symmetry adapted cartesian basis functions of AU  symmetry.
 There are   103 symmetry adapted basis functions of AG  symmetry.
 There are   103 symmetry adapted basis functions of AU  symmetry.
   206 basis functions,   352 primitive gaussians,   206 cartesian basis functions
    34 alpha electrons       34 beta electrons
       nuclear repulsion energy       462.9367453971 Hartrees.
 NAtoms=   18 NActive=   18 NUniq=    9 SFac= 4.00D+00 NAtFMM=   60 NAOKFM=F Big=F
 Integral buffers will be    131072 words long.
 Raffenetti 2 integral format.
 Two-electron integral symmetry is turned on.
 One-electron integrals computed using PRISM.
 NBasis=   206 RedAO= T EigKep=  1.37D-06  NBF=   103   103
 NBsUse=   205 1.00D-06 EigRej=  7.47D-07 NBFU=   102   103
 ExpMin= 4.38D-02 ExpMax= 3.05D+03 ExpMxC= 4.57D+02 IAcc=3 IRadAn=         5 AccDes= 0.00D+00
 Harris functional with IExCor=  402 and IRadAn=       5 diagonalized for initial guess.
 HarFok:  IExCor=  402 AccDes= 0.00D+00 IRadAn=         5 IDoV= 1 UseB2=F ITyADJ=14
 ICtDFT=  3500011 ScaDFX=  1.000000  1.000000  1.000000  1.000000
 FoFCou: FMM=F IPFlag=           0 FMFlag=      100000 FMFlg1=           0
         NFxFlg=           0 DoJE=T BraDBF=F KetDBF=T FulRan=T
         wScrn=  0.000000 ICntrl=       500 IOpCl=  0 I1Cent=   200000004 NGrid=           0
         NMat0=    1 NMatS0=      1 NMatT0=    0 NMatD0=    1 NMtDS0=    0 NMtDT0=    0
 Petite list used in FoFCou.
 Initial guess orbital symmetries:
       Occupied  (AU) (AG) (AU) (AG) (AG) (AU) (AG) (AU) (AG) (AU)
                 (AG) (AU) (AU) (AG) (AG) (AU) (AU) (AG) (AU) (AG)
                 (AG) (AU) (AG) (AG) (AU) (AU) (AU) (AU) (AG) (AG)
                 (AG) (AG) (AU) (AU)
       Virtual   (AG) (AG) (AU) (AU) (AG) (AU) (AU) (AG) (AG) (AG)
                 (AG) (AU) (AU) (AU) (AG) (AG) (AU) (AG) (AU) (AG)
                 (AU) (AU) (AU) (AU) (AG) (AU) (AG) (AU) (AG) (AG)
                 (AU) (AG) (AG) (AG) (AU) (AU) (AU) (AU) (AG) (AG)
                 (AU) (AG) (AU) (AG) (AU) (AG) (AG) (AU) (AU) (AG)
                 (AG) (AG) (AU) (AU) (AU) (AG) (AG) (AU) (AU) (AU)
                 (AG) (AU) (AG) (AU) (AU) (AG) (AG) (AG) (AU) (AU)
                 (AG) (AG) (AG) (AU) (AU) (AG) (AU) (AG) (AU) (AU)
                 (AG) (AU) (AG) (AU) (AG) (AU) (AG) (AG) (AU) (AG)
                 (AU) (AU) (AG) (AG) (AU) (AU) (AG) (AU) (AG) (AG)
                 (AU) (AG) (AU) (AU) (AG) (AU) (AU) (AG) (AG) (AU)
                 (AG) (AG) (AU) (AU) (AG) (AU) (AG) (AU) (AG) (AG)
                 (AU) (AG) (AU) (AU) (AG) (AU) (AU) (AG) (AG) (AG)
                 (AU) (AU) (AG) (AG) (AU) (AG) (AU) (AG) (AG) (AU)
                 (AU) (AG) (AU) (AG) (AU) (AU) (AU) (AG) (AG) (AU)
                 (AG) (AG) (AU) (AG) (AU) (AG) (AG) (AU) (AU) (AU)
                 (AG) (AG) (AU) (AG) (AU) (AG) (AU) (AU) (AG) (AG)
                 (AU)
 The electronic state of the initial guess is 1-AG.
 Keep R1 ints in memory in symmetry-blocked form, NReq=341008791.
 Requested convergence on RMS density matrix=1.00D-08 within 128 cycles.
 Requested convergence on MAX density matrix=1.00D-06.
 Requested convergence on             energy=1.00D-06.
 No special actions if energy rises.
 SCF Done:  E(RB3LYP) =  -385.811316663     A.U. after   12 cycles
            NFock= 12  Conv=0.64D-08     -V/T= 2.0055

 **********************************************************************

            Population analysis using the SCF Density.

 **********************************************************************

 Orbital symmetries:
       Occupied  (AG) (AU) (AG) (AU) (AG) (AU) (AU) (AG) (AU) (AG)
                 (AG) (AU) (AU) (AG) (AG) (AU) (AU) (AG) (AG) (AU)
                 (AG) (AU) (AG) (AG) (AU) (AU) (AU) (AU) (AG) (AG)
                 (AG) (AG) (AU) (AU)
       Virtual   (AG) (AG) (AU) (AG) (AU) (AU) (AG) (AG) (AU) (AU)
                 (AG) (AU) (AG) (AU) (AG) (AU) (AG) (AG) (AU) (AU)
                 (AU) (AU) (AG) (AU) (AU) (AG) (AG) (AG) (AG) (AU)
                 (AG) (AU) (AU) (AG) (AG) (AU) (AG) (AG) (AU) (AU)
                 (AG) (AU) (AU) (AG) (AU) (AG) (AU) (AG) (AU) (AU)
                 (AG) (AG) (AU) (AU) (AG) (AG) (AG) (AU) (AU) (AU)
                 (AG) (AU) (AG) (AG) (AU) (AU) (AG) (AG) (AU) (AU)
                 (AG) (AU) (AG) (AU) (AG) (AG) (AG) (AU) (AU) (AU)
                 (AG) (AU) (AG) (AU) (AG) (AU) (AG) (AG) (AG) (AU)
                 (AU) (AU) (AG) (AG) (AU) (AU) (AG) (AU) (AG) (AG)
                 (AU) (AU) (AU) (AG) (AG) (AU) (AU) (AG) (AG) (AU)
                 (AG) (AG) (AU) (AU) (AG) (AG) (AU) (AU) (AG) (AG)
                 (AU) (AG) (AU) (AG) (AU) (AU) (AU) (AG) (AG) (AG)
                 (AU) (AU) (AG) (AU) (AG) (AG) (AU) (AG) (AG) (AG)
                 (AU) (AU) (AG) (AU) (AU) (AU) (AU) (AG) (AU) (AG)
                 (AG) (AG) (AU) (AG) (AU) (AG) (AG) (AU) (AU) (AU)
                 (AG) (AG) (AU) (AG) (AU) (AG) (AU) (AU) (AG) (AG)
                 (AU)
 The electronic state is 1-AG.
 Alpha  occ. eigenvalues --  -10.19907 -10.19861 -10.18484 -10.18484 -10.18417
 Alpha  occ. eigenvalues --  -10.18417 -10.18279 -10.18279 -10.18098 -10.18098
 Alpha  occ. eigenvalues --   -0.87904  -0.82879  -0.78642  -0.75113  -0.73441
 Alpha  occ. eigenvalues --   -0.64596  -0.62433  -0.62384  -0.54123  -0.54105
 Alpha  occ. eigenvalues --   -0.50797  -0.47985  -0.44944  -0.44184  -0.42137
 Alpha  occ. eigenvalues --   -0.41749  -0.39273  -0.38903  -0.34538  -0.34400
 Alpha  occ. eigenvalues --   -0.33058  -0.28826  -0.24854  -0.22059
 Alpha virt. eigenvalues --   -0.04713  -0.01642   0.00913   0.01017   0.01910
 Alpha virt. eigenvalues --    0.01981   0.03946   0.03987   0.06017   0.06247
 Alpha virt. eigenvalues --    0.06330   0.06624   0.07158   0.08076   0.08372
 Alpha virt. eigenvalues --    0.10620   0.10955   0.11002   0.12467   0.12567
 Alpha virt. eigenvalues --    0.12791   0.14099   0.14541   0.15237   0.16169
 Alpha virt. eigenvalues --    0.16750   0.16812   0.17632   0.19549   0.20941
 Alpha virt. eigenvalues --    0.21060   0.21423   0.21511   0.21601   0.22058
 Alpha virt. eigenvalues --    0.22126   0.22168   0.22833   0.23207   0.25685
 Alpha virt. eigenvalues --    0.25769   0.27146   0.27663   0.28314   0.29167
 Alpha virt. eigenvalues --    0.29452   0.29457   0.30037   0.30289   0.31583
 Alpha virt. eigenvalues --    0.33603   0.34362   0.35394   0.36232   0.36427
 Alpha virt. eigenvalues --    0.38098   0.39159   0.41926   0.43642   0.53013
 Alpha virt. eigenvalues --    0.53514   0.61202   0.64581   0.66272   0.66563
 Alpha virt. eigenvalues --    0.66643   0.68174   0.71072   0.71953   0.72256
 Alpha virt. eigenvalues --    0.72446   0.73724   0.75030   0.75239   0.76080
 Alpha virt. eigenvalues --    0.76973   0.77375   0.77423   0.80241   0.81736
 Alpha virt. eigenvalues --    0.82114   0.82690   0.87463   0.94169   0.95674
 Alpha virt. eigenvalues --    0.97714   0.99503   1.00058   1.02195   1.03321
 Alpha virt. eigenvalues --    1.04057   1.06097   1.07174   1.08376   1.11779
 Alpha virt. eigenvalues --    1.12662   1.13138   1.13457   1.16829   1.18506
 Alpha virt. eigenvalues --    1.21767   1.22595   1.23685   1.25232   1.27942
 Alpha virt. eigenvalues --    1.36633   1.38645   1.38826   1.39796   1.44462
 Alpha virt. eigenvalues --    1.47577   1.47726   1.49031   1.49184   1.50181
 Alpha virt. eigenvalues --    1.53032   1.53527   1.58976   1.74288   1.81419
 Alpha virt. eigenvalues --    1.84042   1.85563   1.97122   1.97601   1.97906
 Alpha virt. eigenvalues --    1.99511   2.03898   2.07819   2.08524   2.11007
 Alpha virt. eigenvalues --    2.12242   2.13784   2.18847   2.19651   2.19690
 Alpha virt. eigenvalues --    2.20061   2.21177   2.21290   2.28415   2.32284
 Alpha virt. eigenvalues --    2.32392   2.32553   2.37623   2.37733   2.57143
 Alpha virt. eigenvalues --    2.60899   2.61731   2.67072   2.68704   2.70118
 Alpha virt. eigenvalues --    2.73942   2.74335   2.78886   2.81703   2.88001
 Alpha virt. eigenvalues --    2.91785   2.94673   2.95294   3.10619   3.41754
 Alpha virt. eigenvalues --    3.55189   4.24716   4.27176   4.29401   4.32515
 Alpha virt. eigenvalues --    4.33189   4.35984   4.43023   4.45998   4.56802
 Alpha virt. eigenvalues --    4.83104
          Condensed to atoms (all electrons):
               1          2          3          4          5          6
     1  C    6.192330  -0.109422  -0.093267   0.081815   0.526006  -0.199641
     2  H   -0.109422   0.560520   0.044302   0.001565   0.029318   0.027692
     3  C   -0.093267   0.044302   8.593225   0.178742  -2.489696  -1.965584
     4  C    0.081815   0.001565   0.178742   6.192330  -0.199641   0.526006
     5  C    0.526006   0.029318  -2.489696  -0.199641  13.760186   0.519744
     6  C   -0.199641   0.027692  -1.965584   0.526006   0.519744  13.760186
     7  H   -0.001042  -0.000012   0.003437  -0.003383   0.030703   0.098835
     8  H   -0.001355  -0.000000   0.010431   0.415781   0.025001   0.026181
     9  H   -0.004017   0.000000  -0.107690   0.014272   0.100836   0.039853
    10  C   -0.247156  -0.096784   0.384278  -0.528674  -2.000639  -2.500206
    11  H    0.014272  -0.007669  -0.014865  -0.004017   0.039853   0.100836
    12  H    0.415781  -0.006360  -0.094327  -0.001355   0.026181   0.025001
    13  C   -0.528674   0.010510   1.779661  -0.247156  -2.500206  -2.000639
    14  H   -0.003383  -0.000267   0.237974  -0.001042   0.098835   0.030703
    15  C    0.339323   0.411466  -0.254350  -0.216199  -0.156429   0.538333
    16  C   -0.216199  -0.001383  -0.547800   0.339323   0.538333  -0.156429
    17  H    0.001565  -0.000000  -0.027433  -0.109422   0.027692   0.029318
    18  C    0.178742  -0.027433   0.140735  -0.093267  -1.965584  -2.489696
               7          8          9         10         11         12
     1  C   -0.001042  -0.001355  -0.004017  -0.247156   0.014272   0.415781
     2  H   -0.000012  -0.000000   0.000000  -0.096784  -0.007669  -0.006360
     3  C    0.003437   0.010431  -0.107690   0.384278  -0.014865  -0.094327
     4  C   -0.003383   0.415781   0.014272  -0.528674  -0.004017  -0.001355
     5  C    0.030703   0.025001   0.100836  -2.000639   0.039853   0.026181
     6  C    0.098835   0.026181   0.039853  -2.500206   0.100836   0.025001
     7  H    0.591927  -0.007117   0.000036  -0.101650   0.004942   0.000000
     8  H   -0.007117   0.563275  -0.000313  -0.027727  -0.000011  -0.000000
     9  H    0.000036  -0.000313   0.601311   0.002676   0.000003  -0.000011
    10  C   -0.101650  -0.027727   0.002676   8.785693   0.227751   0.047557
    11  H    0.004942  -0.000011   0.000003   0.227751   0.601311  -0.000313
    12  H    0.000000  -0.000000  -0.000011   0.047557  -0.000313   0.563275
    13  C   -0.013836   0.047557   0.227751   0.043885   0.002676  -0.027727
    14  H    0.000003   0.000000   0.004942  -0.013836   0.000036  -0.007117
    15  C   -0.004318   0.001671  -0.001224  -0.218328  -0.002474  -0.114121
    16  C    0.012132  -0.114121  -0.002474   0.219986  -0.001224   0.001671
    17  H   -0.000267  -0.006360  -0.007669   0.010510   0.000000  -0.000000
    18  C    0.237974  -0.094327  -0.014865   1.779661  -0.107690   0.010431
              13         14         15         16         17         18
     1  C   -0.528674  -0.003383   0.339323  -0.216199   0.001565   0.178742
     2  H    0.010510  -0.000267   0.411466  -0.001383  -0.000000  -0.027433
     3  C    1.779661   0.237974  -0.254350  -0.547800  -0.027433   0.140735
     4  C   -0.247156  -0.001042  -0.216199   0.339323  -0.109422  -0.093267
     5  C   -2.500206   0.098835  -0.156429   0.538333   0.027692  -1.965584
     6  C   -2.000639   0.030703   0.538333  -0.156429   0.029318  -2.489696
     7  H   -0.013836   0.000003  -0.004318   0.012132  -0.000267   0.237974
     8  H    0.047557   0.000000   0.001671  -0.114121  -0.006360  -0.094327
     9  H    0.227751   0.004942  -0.001224  -0.002474  -0.007669  -0.014865
    10  C    0.043885  -0.013836  -0.218328   0.219986   0.010510   1.779661
    11  H    0.002676   0.000036  -0.002474  -0.001224   0.000000  -0.107690
    12  H   -0.027727  -0.007117  -0.114121   0.001671  -0.000000   0.010431
    13  C    8.785693  -0.101650   0.219986  -0.218328  -0.096784   0.384278
    14  H   -0.101650   0.591927   0.012132  -0.004318  -0.000012   0.003437
    15  C    0.219986   0.012132   6.249544   0.066829  -0.001383  -0.547800
    16  C   -0.218328  -0.004318   0.066829   6.249544   0.411466  -0.254350
    17  H   -0.096784  -0.000012  -0.001383   0.411466   0.560520   0.044302
    18  C    0.384278   0.003437  -0.547800  -0.254350   0.044302   8.593225
 Mulliken charges:
               1
     1  C   -0.345679
     2  H    0.163955
     3  C    0.222225
     4  C   -0.345679
     5  C   -0.410494
     6  C   -0.410494
     7  H    0.151635
     8  H    0.161435
     9  H    0.146582
    10  C    0.233001
    11  H    0.146582
    12  H    0.161435
    13  C    0.233001
    14  H    0.151635
    15  C   -0.322660
    16  C   -0.322660
    17  H    0.163955
    18  C    0.222225
 Sum of Mulliken charges =  -0.00000
 Mulliken charges with hydrogens summed into heavy atoms:
               1
     1  C   -0.184244
     3  C    0.373860
     4  C   -0.184244
     5  C   -0.410494
     6  C   -0.410494
    10  C    0.379584
    13  C    0.379584
    15  C   -0.158705
    16  C   -0.158705
    18  C    0.373860
 Electronic spatial extent (au):  <R**2>=           1270.7759
 Charge=             -0.0000 electrons
 Dipole moment (field-independent basis, Debye):
    X=              0.0000    Y=             -0.0000    Z=             -0.0000  Tot=              0.0000
 Quadrupole moment (field-independent basis, Debye-Ang):
   XX=            -59.8649   YY=            -53.6572   ZZ=            -53.1281
   XY=              4.3871   XZ=             -3.6042   YZ=              1.7376
 Traceless Quadrupole moment (field-independent basis, Debye-Ang):
   XX=             -4.3148   YY=              1.8929   ZZ=              2.4219
   XY=              4.3871   XZ=             -3.6042   YZ=              1.7376
 Octapole moment (field-independent basis, Debye-Ang**2):
  XXX=              0.0000  YYY=             -0.0000  ZZZ=             -0.0000  XYY=              0.0000
  XXY=             -0.0000  XXZ=              0.0000  XZZ=              0.0000  YZZ=             -0.0000
  YYZ=              0.0000  XYZ=             -0.0000
 Hexadecapole moment (field-independent basis, Debye-Ang**3):
 XXXX=           -382.3111 YYYY=           -445.5703 ZZZZ=           -900.5936 XXXY=           -107.1108
 XXXZ=            203.5458 YYYX=            -89.3255 YYYZ=             35.4218 ZZZX=            155.3796
 ZZZY=             38.0830 XXYY=           -128.6682 XXZZ=           -206.4378 YYZZ=           -227.1716
 XXYZ=             -3.5476 YYXZ=             61.2650 ZZXY=            -24.7147
 N-N= 4.629367453971D+02 E-N=-1.819505038323D+03  KE= 3.837012543215D+02
 Symmetry AG   KE= 1.924543602516D+02
 Symmetry AU   KE= 1.912468940700D+02
 Calling FoFJK, ICntrl=      2127 FMM=F ISym2X=1 I1Cent= 0 IOpClX= 0 NMat=1 NMatS=1 NMatT=0.
 ***** Axes restored to original set *****
 -------------------------------------------------------------------
 Center     Atomic                   Forces (Hartrees/Bohr)
 Number     Number              X              Y              Z
 -------------------------------------------------------------------
      1        6           0.026161874   -0.020764378   -0.086222210
      2        1          -0.049014635   -0.054183232    0.050489768
      3        6          -0.036762916   -0.111605003   -0.049458081
      4        6          -0.026161874    0.020764378    0.086222210
      5        6          -0.001079802   -0.003287870   -0.002241678
      6        6           0.001079802    0.003287870    0.002241678
      7        1          -0.037796528   -0.113456389   -0.049032354
      8        1           0.026998495   -0.026423138   -0.093971817
      9        1           0.042498194    0.128103023    0.055109828
     10        6           0.042719687    0.126449764    0.050326447
     11        1          -0.042498194   -0.128103023   -0.055109828
     12        1          -0.026998495    0.026423138    0.093971817
     13        6          -0.042719687   -0.126449764   -0.050326447
     14        1           0.037796528    0.113456389    0.049032354
     15        6           0.047037617    0.048526250   -0.050527725
     16        6          -0.047037617   -0.048526250    0.050527725
     17        1           0.049014635    0.054183232   -0.050489768
     18        6           0.036762916    0.111605003    0.049458081
 -------------------------------------------------------------------
 Cartesian Forces:  Max     0.128103023 RMS     0.063360160

 GradGradGradGradGradGradGradGradGradGradGradGradGradGradGradGradGradGrad
 Berny optimization.
 FormGI is forming the generalized inverse of G from B-inverse, IUseBI=4.
 Internal  Forces:  Max     0.145765148 RMS     0.034781072
 Search for a local minimum.
 Step number   1 out of a maximum of  103
 All quantities printed in internal units (Hartrees-Bohrs-Radians)
 Mixed Optimization -- RFO/linear search
 Second derivative matrix not updated -- first step.
 ITU=  0
     Eigenvalues ---    0.01783   0.01796   0.01799   0.01980   0.02012
     Eigenvalues ---    0.02035   0.02039   0.02098   0.02098   0.02155
     Eigenvalues ---    0.02156   0.02173   0.02201   0.02261   0.02273
     Eigenvalues ---    0.15996   0.15996   0.15998   0.15998   0.15998
     Eigenvalues ---    0.15998   0.15999   0.16000   0.22000   0.22000
     Eigenvalues ---    0.22333   0.22798   0.24280   0.24713   0.37363
     Eigenvalues ---    0.39451   0.39902   0.41061   0.41995   0.42970
     Eigenvalues ---    0.43363   0.47741   0.47943   0.49129   0.49136
     Eigenvalues ---    0.49542   0.49542   0.51463   0.51463   0.55800
     Eigenvalues ---    0.55800   0.58348   0.58348
 RFO step:  Lambda=-1.59060932D-01 EMin= 1.78302963D-02
 Linear search not attempted -- first point.
 Maximum step size (   0.300) exceeded in Quadratic search.
    -- Step size scaled by   0.632
 Iteration  1 RMS(Cart)=  0.03288594 RMS(Int)=  0.00010871
 Iteration  2 RMS(Cart)=  0.00013790 RMS(Int)=  0.00000151
 Iteration  3 RMS(Cart)=  0.00000002 RMS(Int)=  0.00000151
 ClnCor:  largest displacement from symmetrization is 6.90D-09 for atom    12.
 Variable       Old X    -DE/DX   Delta X   Delta X   Delta X     New X
                                 (Linear)    (Quad)   (Total)
    R1        2.60340   0.00235   0.00000   0.00227   0.00227   2.60568
    R2        1.85117   0.10125   0.00000   0.09491   0.09491   1.94608
    R3        2.66739   0.00736   0.00000   0.00788   0.00788   2.67526
    R4        1.87031   0.08878   0.00000   0.08567   0.08567   1.95597
    R5        2.68993   0.00244   0.00000   0.00258   0.00258   2.69251
    R6        1.81128   0.12920   0.00000   0.11379   0.11379   1.92507
    R7        1.85117   0.10125   0.00000   0.09491   0.09491   1.94608
    R8        2.66739   0.00736   0.00000   0.00788   0.00788   2.67526
    R9        2.60340   0.00235   0.00000   0.00227   0.00227   2.60568
   R10        2.68641   0.00748   0.00000   0.00795   0.00794   2.69435
   R11        2.69002   0.00171   0.00000   0.00186   0.00186   2.69188
   R12        2.68993   0.00244   0.00000   0.00258   0.00258   2.69251
   R13        2.69002   0.00171   0.00000   0.00186   0.00186   2.69188
   R14        1.81128   0.12920   0.00000   0.11379   0.11379   1.92507
   R15        1.78972   0.14577   0.00000   0.12397   0.12397   1.91369
   R16        1.78972   0.14577   0.00000   0.12397   0.12397   1.91369
   R17        2.60045   0.00526   0.00000   0.00512   0.00512   2.60558
   R18        2.60045   0.00526   0.00000   0.00512   0.00512   2.60558
   R19        1.87031   0.08878   0.00000   0.08567   0.08567   1.95597
    A1        2.10779  -0.00145   0.00000  -0.00315  -0.00315   2.10464
    A2        2.10716  -0.00155   0.00000  -0.00248  -0.00248   2.10468
    A3        2.06808   0.00301   0.00000   0.00566   0.00566   2.07374
    A4        2.09884   0.00087   0.00000   0.00129   0.00129   2.10012
    A5        2.12715  -0.00348   0.00000  -0.00667  -0.00667   2.12048
    A6        2.05716   0.00261   0.00000   0.00539   0.00539   2.06255
    A7        2.06808   0.00301   0.00000   0.00566   0.00566   2.07374
    A8        2.10779  -0.00145   0.00000  -0.00315  -0.00315   2.10464
    A9        2.10716  -0.00155   0.00000  -0.00248  -0.00248   2.10468
   A10        2.08207  -0.00078   0.00000  -0.00125  -0.00125   2.08082
   A11        2.07765   0.00084   0.00000   0.00109   0.00109   2.07874
   A12        2.12347  -0.00006   0.00000   0.00015   0.00015   2.12362
   A13        2.07765   0.00084   0.00000   0.00109   0.00109   2.07874
   A14        2.12347  -0.00006   0.00000   0.00015   0.00015   2.12362
   A15        2.08207  -0.00078   0.00000  -0.00125  -0.00125   2.08082
   A16        2.06126   0.00221   0.00000   0.00431   0.00431   2.06557
   A17        2.10162  -0.00022   0.00000  -0.00029  -0.00029   2.10133
   A18        2.12018  -0.00198   0.00000  -0.00400  -0.00400   2.11618
   A19        2.06126   0.00221   0.00000   0.00431   0.00431   2.06557
   A20        2.10162  -0.00022   0.00000  -0.00029  -0.00029   2.10133
   A21        2.12018  -0.00198   0.00000  -0.00400  -0.00400   2.11618
   A22        2.10433  -0.00253   0.00000  -0.00499  -0.00499   2.09934
   A23        2.09900   0.00085   0.00000   0.00164   0.00164   2.10064
   A24        2.07969   0.00169   0.00000   0.00337   0.00337   2.08307
   A25        2.09900   0.00085   0.00000   0.00164   0.00164   2.10064
   A26        2.10433  -0.00253   0.00000  -0.00499  -0.00499   2.09934
   A27        2.07969   0.00169   0.00000   0.00337   0.00337   2.08307
   A28        2.09884   0.00087   0.00000   0.00129   0.00129   2.10012
   A29        2.12715  -0.00348   0.00000  -0.00667  -0.00667   2.12048
   A30        2.05716   0.00261   0.00000   0.00539   0.00539   2.06255
    D1       -3.12052  -0.00045   0.00000  -0.00156  -0.00156  -3.12208
    D2        0.02980  -0.00060   0.00000  -0.00205  -0.00205   0.02775
    D3        0.00219  -0.00003   0.00000  -0.00013  -0.00013   0.00206
    D4       -3.13068  -0.00018   0.00000  -0.00062  -0.00062  -3.13130
    D5        3.12636   0.00026   0.00000   0.00088   0.00088   3.12724
    D6        0.00410  -0.00016   0.00000  -0.00055  -0.00055   0.00354
    D7       -0.03369   0.00062   0.00000   0.00219   0.00219  -0.03150
    D8        3.12723   0.00020   0.00000   0.00075   0.00076   3.12799
    D9       -0.00355   0.00013   0.00000   0.00047   0.00047  -0.00308
   D10        3.13685   0.00009   0.00000   0.00032   0.00032   3.13717
   D11        3.12966   0.00024   0.00000   0.00088   0.00088   3.13054
   D12       -0.01312   0.00020   0.00000   0.00073   0.00074  -0.01239
   D13       -3.12723  -0.00020   0.00000  -0.00075  -0.00076  -3.12799
   D14        0.03369  -0.00062   0.00000  -0.00219  -0.00219   0.03150
   D15       -0.00410   0.00016   0.00000   0.00055   0.00055  -0.00354
   D16       -3.12636  -0.00026   0.00000  -0.00088  -0.00088  -3.12724
   D17        3.12052   0.00045   0.00000   0.00156   0.00156   3.12208
   D18       -0.02980   0.00060   0.00000   0.00205   0.00205  -0.02775
   D19       -0.00219   0.00003   0.00000   0.00013   0.00013  -0.00206
   D20        3.13068   0.00018   0.00000   0.00062   0.00062   3.13130
   D21       -0.00116  -0.00004   0.00000  -0.00014  -0.00014  -0.00130
   D22        3.14159   0.00000   0.00000   0.00000   0.00000   3.14159
   D23       -3.14159  -0.00000   0.00000  -0.00000  -0.00000   3.14159
   D24        0.00116   0.00004   0.00000   0.00014   0.00014   0.00130
   D25        3.13239   0.00024   0.00000   0.00086   0.00086   3.13326
   D26        0.00740  -0.00016   0.00000  -0.00054  -0.00055   0.00685
   D27       -0.01040   0.00020   0.00000   0.00072   0.00072  -0.00967
   D28       -3.13539  -0.00020   0.00000  -0.00069  -0.00069  -3.13608
   D29        0.00355  -0.00013   0.00000  -0.00047  -0.00047   0.00308
   D30       -3.12966  -0.00024   0.00000  -0.00088  -0.00088  -3.13054
   D31       -3.13685  -0.00009   0.00000  -0.00032  -0.00032  -3.13717
   D32        0.01312  -0.00020   0.00000  -0.00073  -0.00074   0.01239
   D33        0.01040  -0.00020   0.00000  -0.00072  -0.00072   0.00967
   D34        3.13539   0.00020   0.00000   0.00069   0.00069   3.13608
   D35       -3.13239  -0.00024   0.00000  -0.00086  -0.00086  -3.13326
   D36       -0.00740   0.00016   0.00000   0.00054   0.00055  -0.00685
   D37       -0.00889   0.00025   0.00000   0.00088   0.00088  -0.00800
   D38       -3.13142  -0.00012   0.00000  -0.00044  -0.00044  -3.13186
   D39       -3.13331  -0.00020   0.00000  -0.00065  -0.00065  -3.13396
   D40        0.02734  -0.00057   0.00000  -0.00198  -0.00198   0.02536
   D41        0.00889  -0.00025   0.00000  -0.00088  -0.00088   0.00800
   D42        3.13142   0.00012   0.00000   0.00044   0.00044   3.13186
   D43        3.13331   0.00020   0.00000   0.00065   0.00065   3.13396
   D44       -0.02734   0.00057   0.00000   0.00198   0.00198  -0.02536
         Item               Value     Threshold  Converged?
 Maximum Force            0.145765     0.000450     NO 
 RMS     Force            0.034781     0.000300     NO 
 Maximum Displacement     0.114958     0.001800     NO 
 RMS     Displacement     0.032892     0.001200     NO 
 Predicted change in Energy=-7.589442D-02
 GradGradGradGradGradGradGradGradGradGradGradGradGradGradGradGradGradGrad

                          Input orientation:                          
 ---------------------------------------------------------------------
 Center     Atomic      Atomic             Coordinates (Angstroms)
 Number     Number       Type             X           Y           Z
 ---------------------------------------------------------------------
      1          6           0       -2.964261   -1.376397    2.348674
      2          1           0       -3.939960   -3.273593    2.393616
      3          6           0       -2.200114   -0.511465    1.594193
      4          6           0       -1.084739   -1.600103   -2.348674
      5          6           0       -2.231740   -2.115967   -0.266914
      6          6           0       -1.817260   -0.860533    0.266914
      7          1           0       -2.160976   -3.361095   -1.964909
      8          1           0       -0.791370   -1.855639   -3.302178
      9          1           0       -0.739630    0.898420   -0.144654
     10          6           0       -3.016050   -2.989764    0.539607
     11          1           0       -3.309370   -3.874920    0.144654
     12          1           0       -3.257630   -1.120861    3.302178
     13          6           0       -1.032950    0.013264   -0.539607
     14          1           0       -1.888024    0.384595    1.964909
     15          6           0       -3.377138   -2.622487    1.818609
     16          6           0       -0.671862   -0.354013   -1.818609
     17          1           0       -0.109040    0.297093   -2.393616
     18          6           0       -1.848886   -2.465035   -1.594193
 ---------------------------------------------------------------------
                    Distance matrix (angstroms):
                    1          2          3          4          5
     1  C    0.000000
     2  H    2.133860   0.000000
     3  C    1.378866   3.360876   0.000000
     4  C    5.064358   5.782921   4.239740   0.000000
     5  C    2.815111   3.366977   2.457467   2.432170   0.000000
     6  C    2.432170   3.853774   1.424814   2.815111   1.425791
     7  H    4.815734   4.708416   4.559510   2.099204   2.106784
     8  H    6.073159   6.660802   5.269328   1.029823   3.369758
     9  H    4.042334   5.838717   2.672897   3.349540   3.365690
    10  C    2.424533   2.090817   2.814226   3.742097   1.424479
    11  H    3.349540   2.411859   3.826805   4.042334   2.103471
    12  H    1.029823   2.434197   2.099266   6.073159   3.844621
    13  C    3.742097   5.278061   2.488115   2.424533   2.458675
    14  H    2.099204   4.216227   1.018702   4.815734   3.369271
    15  C    1.415689   1.035056   2.427377   4.864834   2.432675
    16  C    4.864834   6.078425   3.742668   1.415689   2.818769
    17  H    5.782921   7.095303   4.574820   2.133860   3.853774
    18  C    4.239740   4.574820   3.755742   1.378866   1.424814
                    6          7          8          9         10
     6  C    0.000000
     7  H    3.369271   0.000000
     8  H    3.844621   2.435263   0.000000
     9  H    2.103471   4.845309   4.190164   0.000000
    10  C    2.458675   2.672384   4.582003   4.557223   0.000000
    11  H    3.365690   2.456234   4.722126   5.428816   1.012682
    12  H    3.369758   5.827822   7.088009   4.722126   3.344094
    13  C    1.424479   3.832784   3.344094   1.012682   3.757069
    14  H    2.106784   5.435823   5.827822   2.456234   3.832784
    15  C    2.818769   4.042227   5.787635   4.817431   1.378813
    16  C    2.432675   3.358780   2.114271   2.091723   4.243063
    17  H    3.366977   4.216227   2.434197   2.411859   5.278061
    18  C    2.457467   1.018702   2.099266   3.826805   2.488115
                   11         12         13         14         15
    11  H    0.000000
    12  H    4.190164   0.000000
    13  C    4.557223   4.582003   0.000000
    14  H    4.845309   2.435263   2.672384   0.000000
    15  C    2.091723   2.114271   4.243063   3.358780   0.000000
    16  C    4.817431   5.787635   1.378813   4.042227   5.068910
    17  H    5.838717   6.660802   2.090817   4.708416   6.078425
    18  C    2.672897   5.269328   2.814226   4.559510   3.742668
                   16         17         18
    16  C    0.000000
    17  H    1.035056   0.000000
    18  C    2.427377   3.360876   0.000000
 Stoichiometry    C10H8
 Framework group  CI[X(C10H8)]
 Deg. of freedom    24
 Full point group                 CI      NOp   2
 Largest Abelian subgroup         CI      NOp   2
 Largest concise Abelian subgroup CI      NOp   2
                         Standard orientation:                         
 ---------------------------------------------------------------------
 Center     Atomic      Atomic             Coordinates (Angstroms)
 Number     Number       Type             X           Y           Z
 ---------------------------------------------------------------------
      1          6           0       -0.939761    0.111853    2.348674
      2          1           0       -1.915460   -1.785343    2.393616
      3          6           0       -0.175614    0.976785    1.594193
      4          6           0        0.939761   -0.111853   -2.348674
      5          6           0       -0.207240   -0.627717   -0.266914
      6          6           0        0.207240    0.627717    0.266914
      7          1           0       -0.136476   -1.872845   -1.964909
      8          1           0        1.233130   -0.367389   -3.302178
      9          1           0        1.284870    2.386670   -0.144654
     10          6           0       -0.991550   -1.501514    0.539607
     11          1           0       -1.284870   -2.386670    0.144654
     12          1           0       -1.233130    0.367389    3.302178
     13          6           0        0.991550    1.501514   -0.539607
     14          1           0        0.136476    1.872845    1.964909
     15          6           0       -1.352638   -1.134237    1.818609
     16          6           0        1.352638    1.134237   -1.818609
     17          1           0        1.915460    1.785343   -2.393616
     18          6           0        0.175614   -0.976785   -1.594193
 ---------------------------------------------------------------------
 Rotational constants (GHZ):           3.1405839           1.2353963           0.8866323
 Standard basis: 6-31+G(d) (6D, 7F)
 There are   103 symmetry adapted cartesian basis functions of AG  symmetry.
 There are   103 symmetry adapted cartesian basis functions of AU  symmetry.
 There are   103 symmetry adapted basis functions of AG  symmetry.
 There are   103 symmetry adapted basis functions of AU  symmetry.
   206 basis functions,   352 primitive gaussians,   206 cartesian basis functions
    34 alpha electrons       34 beta electrons
       nuclear repulsion energy       459.7252128951 Hartrees.
 NAtoms=   18 NActive=   18 NUniq=    9 SFac= 4.00D+00 NAtFMM=   60 NAOKFM=F Big=F
 Integral buffers will be    131072 words long.
 Raffenetti 2 integral format.
 Two-electron integral symmetry is turned on.
 One-electron integrals computed using PRISM.
 NBasis=   206 RedAO= T EigKep=  1.39D-06  NBF=   103   103
 NBsUse=   205 1.00D-06 EigRej=  7.59D-07 NBFU=   102   103
 Initial guess from the checkpoint file:  "/home/wangzhe/g16/Scratch/Gau-28868.chk"
 B after Tr=    -0.000000    0.000000    0.000000
         Rot=    1.000000   -0.000074    0.000046   -0.000021 Ang=  -0.01 deg.
 Initial guess orbital symmetries:
       Occupied  (AG) (AU) (AG) (AU) (AG) (AU) (AU) (AG) (AU) (AG)
                 (AG) (AU) (AU) (AG) (AG) (AU) (AU) (AG) (AG) (AU)
                 (AG) (AU) (AG) (AG) (AU) (AU) (AU) (AU) (AG) (AG)
                 (AG) (AG) (AU) (AU)
       Virtual   (AG) (AG) (AU) (AG) (AU) (AU) (AG) (AG) (AU) (AU)
                 (AG) (AU) (AG) (AU) (AG) (AU) (AG) (AG) (AU) (AU)
                 (AU) (AU) (AG) (AU) (AU) (AG) (AG) (AG) (AG) (AU)
                 (AG) (AU) (AU) (AG) (AG) (AU) (AG) (AG) (AU) (AU)
                 (AG) (AU) (AU) (AG) (AU) (AG) (AU) (AG) (AU) (AU)
                 (AG) (AG) (AU) (AU) (AG) (AG) (AG) (AU) (AU) (AU)
                 (AG) (AU) (AG) (AG) (AU) (AU) (AG) (AG) (AU) (AU)
                 (AG) (AU) (AG) (AU) (AG) (AG) (AG) (AU) (AU) (AU)
                 (AG) (AU) (AG) (AU) (AG) (AU) (AG) (AG) (AG) (AU)
                 (AU) (AU) (AG) (AG) (AU) (AU) (AG) (AU) (AG) (AG)
                 (AU) (AU) (AU) (AG) (AG) (AU) (AU) (AG) (AG) (AU)
                 (AG) (AG) (AU) (AU) (AG) (AG) (AU) (AU) (AG) (AG)
                 (AU) (AG) (AU) (AG) (AU) (AU) (AU) (AG) (AG) (AG)
                 (AU) (AU) (AG) (AU) (AG) (AG) (AU) (AG) (AG) (AG)
                 (AU) (AU) (AG) (AU) (AU) (AU) (AU) (AG) (AU) (AG)
                 (AG) (AG) (AU) (AG) (AU) (AG) (AG) (AU) (AU) (AU)
                 (AG) (AG) (AU) (AG) (AU) (AG) (AU) (AU) (AG) (AG)
                 (AU)
 ExpMin= 4.38D-02 ExpMax= 3.05D+03 ExpMxC= 4.57D+02 IAcc=3 IRadAn=         5 AccDes= 0.00D+00
 Harris functional with IExCor=  402 and IRadAn=       5 diagonalized for initial guess.
 HarFok:  IExCor=  402 AccDes= 0.00D+00 IRadAn=         5 IDoV= 1 UseB2=F ITyADJ=14
 ICtDFT=  3500011 ScaDFX=  1.000000  1.000000  1.000000  1.000000
 FoFCou: FMM=F IPFlag=           0 FMFlag=      100000 FMFlg1=           0
         NFxFlg=           0 DoJE=T BraDBF=F KetDBF=T FulRan=T
         wScrn=  0.000000 ICntrl=       500 IOpCl=  0 I1Cent=   200000004 NGrid=           0
         NMat0=    1 NMatS0=      1 NMatT0=    0 NMatD0=    1 NMtDS0=    0 NMtDT0=    0
 Petite list used in FoFCou.
 Keep R1 ints in memory in symmetry-blocked form, NReq=341008791.
 Requested convergence on RMS density matrix=1.00D-08 within 128 cycles.
 Requested convergence on MAX density matrix=1.00D-06.
 Requested convergence on             energy=1.00D-06.
 No special actions if energy rises.
 SCF Done:  E(RB3LYP) =  -385.882536564     A.U. after   11 cycles
            NFock= 11  Conv=0.73D-08     -V/T= 2.0079
 Calling FoFJK, ICntrl=      2127 FMM=F ISym2X=1 I1Cent= 0 IOpClX= 0 NMat=1 NMatS=1 NMatT=0.
 ***** Axes restored to original set *****
 -------------------------------------------------------------------
 Center     Atomic                   Forces (Hartrees/Bohr)
 Number     Number              X              Y              Z
 -------------------------------------------------------------------
      1        6           0.011199662   -0.009252465   -0.039189701
      2        1          -0.023190878   -0.024604749    0.023953393
      3        6          -0.016091718   -0.051141178   -0.023537409
      4        6          -0.011199662    0.009252465    0.039189701
      5        6          -0.001318673   -0.003885160   -0.002327394
      6        6           0.001318673    0.003885160    0.002327394
      7        1          -0.016002216   -0.050316547   -0.022508176
      8        1           0.011644483   -0.012389802   -0.043176631
      9        1           0.018621685    0.056154467    0.023179505
     10        6           0.018993783    0.057505525    0.021907766
     11        1          -0.018621685   -0.056154467   -0.023179505
     12        1          -0.011644483    0.012389802    0.043176631
     13        6          -0.018993783   -0.057505525   -0.021907766
     14        1           0.016002216    0.050316547    0.022508176
     15        6           0.022636034    0.021168073   -0.024954214
     16        6          -0.022636034   -0.021168073    0.024954214
     17        1           0.023190878    0.024604749   -0.023953393
     18        6           0.016091718    0.051141178    0.023537409
 -------------------------------------------------------------------
 Cartesian Forces:  Max     0.057505525 RMS     0.028629439

 GradGradGradGradGradGradGradGradGradGradGradGradGradGradGradGradGradGrad
 Berny optimization.
 Using GEDIIS/GDIIS optimizer.
 FormGI is forming the generalized inverse of G from B-inverse, IUseBI=4.
 Internal  Forces:  Max     0.063516859 RMS     0.015546461
 Search for a local minimum.
 Step number   2 out of a maximum of  103
 All quantities printed in internal units (Hartrees-Bohrs-Radians)
 Mixed Optimization -- RFO/linear search
 Update second derivatives using D2CorX and points    1    2
 DE= -7.12D-02 DEPred=-7.59D-02 R= 9.38D-01
 TightC=F SS=  1.41D+00  RLast= 3.00D-01 DXNew= 5.0454D-01 9.0022D-01
 Trust test= 9.38D-01 RLast= 3.00D-01 DXMaxT set to 5.05D-01
 ITU=  1  0
 Use linear search instead of GDIIS.
     Eigenvalues ---    0.01783   0.01796   0.01799   0.01980   0.02011
     Eigenvalues ---    0.02034   0.02038   0.02096   0.02096   0.02155
     Eigenvalues ---    0.02155   0.02172   0.02200   0.02261   0.02273
     Eigenvalues ---    0.15994   0.15997   0.15997   0.15998   0.15998
     Eigenvalues ---    0.15999   0.16000   0.16000   0.22000   0.22001
     Eigenvalues ---    0.22334   0.22790   0.24280   0.24712   0.37370
     Eigenvalues ---    0.39461   0.39911   0.41064   0.41986   0.42971
     Eigenvalues ---    0.43378   0.47745   0.47948   0.49114   0.49131
     Eigenvalues ---    0.49542   0.49866   0.51463   0.52108   0.55800
     Eigenvalues ---    0.56675   0.58348   0.63760
 RFO step:  Lambda=-1.25227967D-03 EMin= 1.78302942D-02
 Quartic linear search produced a step of  1.18978.
 Iteration  1 RMS(Cart)=  0.04098688 RMS(Int)=  0.00095895
 Iteration  2 RMS(Cart)=  0.00088461 RMS(Int)=  0.00013211
 Iteration  3 RMS(Cart)=  0.00000077 RMS(Int)=  0.00013211
 ClnCor:  largest displacement from symmetrization is 2.37D-07 for atom     6.
 Variable       Old X    -DE/DX   Delta X   Delta X   Delta X     New X
                                 (Linear)    (Quad)   (Total)
    R1        2.60568   0.00042   0.00271  -0.00277  -0.00006   2.60562
    R2        1.94608   0.04637   0.11292   0.00663   0.11955   2.06564
    R3        2.67526   0.00305   0.00937  -0.00066   0.00874   2.68401
    R4        1.95597   0.04139   0.10192   0.01043   0.11236   2.06833
    R5        2.69251   0.00036   0.00307  -0.00348  -0.00043   2.69208
    R6        1.92507   0.05735   0.13539  -0.00238   0.13300   2.05807
    R7        1.94608   0.04637   0.11292   0.00663   0.11955   2.06564
    R8        2.67526   0.00305   0.00937  -0.00066   0.00874   2.68401
    R9        2.60568   0.00042   0.00271  -0.00277  -0.00006   2.60562
   R10        2.69435   0.00429   0.00945   0.00595   0.01535   2.70970
   R11        2.69188   0.00022   0.00221  -0.00259  -0.00038   2.69150
   R12        2.69251   0.00036   0.00307  -0.00348  -0.00043   2.69208
   R13        2.69188   0.00022   0.00221  -0.00259  -0.00038   2.69150
   R14        1.92507   0.05735   0.13539  -0.00238   0.13300   2.05807
   R15        1.91369   0.06352   0.14750  -0.00878   0.13872   2.05241
   R16        1.91369   0.06352   0.14750  -0.00878   0.13872   2.05241
   R17        2.60558   0.00145   0.00610  -0.00386   0.00226   2.60784
   R18        2.60558   0.00145   0.00610  -0.00386   0.00226   2.60784
   R19        1.95597   0.04139   0.10192   0.01043   0.11236   2.06833
    A1        2.10464  -0.00095  -0.00375  -0.00718  -0.01108   2.09356
    A2        2.10468  -0.00102  -0.00295  -0.00494  -0.00793   2.09675
    A3        2.07374   0.00198   0.00673   0.01252   0.01909   2.09283
    A4        2.10012   0.00115   0.00153   0.00803   0.00956   2.10969
    A5        2.12048  -0.00266  -0.00794  -0.01861  -0.02657   2.09391
    A6        2.06255   0.00151   0.00641   0.01064   0.01703   2.07959
    A7        2.07374   0.00198   0.00673   0.01252   0.01909   2.09283
    A8        2.10464  -0.00095  -0.00375  -0.00718  -0.01108   2.09356
    A9        2.10468  -0.00102  -0.00295  -0.00494  -0.00793   2.09675
   A10        2.08082  -0.00089  -0.00148  -0.00513  -0.00660   2.07422
   A11        2.07874  -0.00011   0.00130  -0.00367  -0.00239   2.07636
   A12        2.12362   0.00100   0.00018   0.00879   0.00898   2.13260
   A13        2.07874  -0.00011   0.00130  -0.00367  -0.00239   2.07636
   A14        2.12362   0.00100   0.00018   0.00879   0.00898   2.13260
   A15        2.08082  -0.00089  -0.00148  -0.00513  -0.00660   2.07422
   A16        2.06557   0.00122   0.00512   0.00809   0.01304   2.07861
   A17        2.10133   0.00063  -0.00034   0.00695   0.00654   2.10787
   A18        2.11618  -0.00185  -0.00476  -0.01466  -0.01957   2.09661
   A19        2.06557   0.00122   0.00512   0.00809   0.01304   2.07861
   A20        2.10133   0.00063  -0.00034   0.00695   0.00654   2.10787
   A21        2.11618  -0.00185  -0.00476  -0.01466  -0.01957   2.09661
   A22        2.09934  -0.00173  -0.00594  -0.01169  -0.01780   2.08154
   A23        2.10064   0.00023   0.00195  -0.00113   0.00079   2.10144
   A24        2.08307   0.00150   0.00401   0.01325   0.01709   2.10015
   A25        2.10064   0.00023   0.00195  -0.00113   0.00079   2.10144
   A26        2.09934  -0.00173  -0.00594  -0.01169  -0.01780   2.08154
   A27        2.08307   0.00150   0.00401   0.01325   0.01709   2.10015
   A28        2.10012   0.00115   0.00153   0.00803   0.00956   2.10969
   A29        2.12048  -0.00266  -0.00794  -0.01861  -0.02657   2.09391
   A30        2.06255   0.00151   0.00641   0.01064   0.01703   2.07959
    D1       -3.12208  -0.00040  -0.00186  -0.03093  -0.03267   3.12844
    D2        0.02775  -0.00053  -0.00244  -0.04003  -0.04220  -0.01445
    D3        0.00206  -0.00004  -0.00016  -0.00408  -0.00434  -0.00228
    D4       -3.13130  -0.00017  -0.00074  -0.01318  -0.01388   3.13801
    D5        3.12724   0.00024   0.00105   0.01802   0.01885  -3.13710
    D6        0.00354  -0.00013  -0.00066  -0.00984  -0.01043  -0.00688
    D7       -0.03150   0.00056   0.00260   0.04421   0.04686   0.01536
    D8        3.12799   0.00020   0.00090   0.01635   0.01759  -3.13761
    D9       -0.00308   0.00012   0.00056   0.01012   0.01074   0.00765
   D10        3.13717   0.00008   0.00038   0.00741   0.00786  -3.13816
   D11        3.13054   0.00023   0.00105   0.01879   0.01999  -3.13265
   D12       -0.01239   0.00019   0.00087   0.01608   0.01711   0.00472
   D13       -3.12799  -0.00020  -0.00090  -0.01635  -0.01759   3.13761
   D14        0.03150  -0.00056  -0.00260  -0.04421  -0.04686  -0.01536
   D15       -0.00354   0.00013   0.00066   0.00984   0.01043   0.00688
   D16       -3.12724  -0.00024  -0.00105  -0.01802  -0.01885   3.13710
   D17        3.12208   0.00040   0.00186   0.03093   0.03267  -3.12844
   D18       -0.02775   0.00053   0.00244   0.04003   0.04220   0.01445
   D19       -0.00206   0.00004   0.00016   0.00408   0.00434   0.00228
   D20        3.13130   0.00017   0.00074   0.01318   0.01388  -3.13801
   D21       -0.00130  -0.00003  -0.00017  -0.00263  -0.00277  -0.00407
   D22       -3.14159  -0.00000   0.00000   0.00000  -0.00000   3.14159
   D23        3.14159   0.00000  -0.00000  -0.00000   0.00000  -3.14159
   D24        0.00130   0.00003   0.00017   0.00263   0.00277   0.00407
   D25        3.13326   0.00022   0.00103   0.01728   0.01853  -3.13140
   D26        0.00685  -0.00014  -0.00065  -0.01107  -0.01177  -0.00491
   D27       -0.00967   0.00018   0.00086   0.01457   0.01566   0.00598
   D28       -3.13608  -0.00017  -0.00082  -0.01378  -0.01464   3.13247
   D29        0.00308  -0.00012  -0.00056  -0.01012  -0.01074  -0.00765
   D30       -3.13054  -0.00023  -0.00105  -0.01879  -0.01999   3.13265
   D31       -3.13717  -0.00008  -0.00038  -0.00741  -0.00786   3.13816
   D32        0.01239  -0.00019  -0.00087  -0.01608  -0.01711  -0.00472
   D33        0.00967  -0.00018  -0.00086  -0.01457  -0.01566  -0.00598
   D34        3.13608   0.00017   0.00082   0.01378   0.01464  -3.13247
   D35       -3.13326  -0.00022  -0.00103  -0.01728  -0.01853   3.13140
   D36       -0.00685   0.00014   0.00065   0.01107   0.01177   0.00491
   D37       -0.00800   0.00021   0.00105   0.01736   0.01847   0.01046
   D38       -3.13186  -0.00012  -0.00053  -0.01000  -0.01076   3.14056
   D39       -3.13396  -0.00018  -0.00077  -0.01203  -0.01243   3.13679
   D40        0.02536  -0.00051  -0.00235  -0.03939  -0.04166  -0.01630
   D41        0.00800  -0.00021  -0.00105  -0.01736  -0.01847  -0.01046
   D42        3.13186   0.00012   0.00053   0.01000   0.01076  -3.14056
   D43        3.13396   0.00018   0.00077   0.01203   0.01243  -3.13679
   D44       -0.02536   0.00051   0.00235   0.03939   0.04166   0.01630
         Item               Value     Threshold  Converged?
 Maximum Force            0.063517     0.000450     NO 
 RMS     Force            0.015546     0.000300     NO 
 Maximum Displacement     0.139563     0.001800     NO 
 RMS     Displacement     0.041098     0.001200     NO 
 Predicted change in Energy=-1.433134D-02
 GradGradGradGradGradGradGradGradGradGradGradGradGradGradGradGradGradGrad

                          Input orientation:                          
 ---------------------------------------------------------------------
 Center     Atomic      Atomic             Coordinates (Angstroms)
 Number     Number       Type             X           Y           Z
 ---------------------------------------------------------------------
      1          6           0       -2.969697   -1.377634    2.356089
      2          1           0       -3.986519   -3.299929    2.433062
      3          6           0       -2.207517   -0.514738    1.597355
      4          6           0       -1.079303   -1.598866   -2.356089
      5          6           0       -2.233649   -2.117912   -0.271679
      6          6           0       -1.815351   -0.858588    0.271679
      7          1           0       -2.150438   -3.421117   -2.010017
      8          1           0       -0.797265   -1.872746   -3.376032
      9          1           0       -0.714091    0.968334   -0.131005
     10          6           0       -3.023873   -2.985868    0.535025
     11          1           0       -3.334909   -3.944834    0.131005
     12          1           0       -3.251735   -1.103754    3.376032
     13          6           0       -1.025127    0.009368   -0.535025
     14          1           0       -1.898562    0.444617    2.010017
     15          6           0       -3.378195   -2.627761    1.819799
     16          6           0       -0.670805   -0.348739   -1.819799
     17          1           0       -0.062481    0.323429   -2.433062
     18          6           0       -1.841483   -2.461762   -1.597355
 ---------------------------------------------------------------------
                    Distance matrix (angstroms):
                    1          2          3          4          5
     1  C    0.000000
     2  H    2.176021   0.000000
     3  C    1.378835   3.408891   0.000000
     4  C    5.082043   5.855040   4.251814   0.000000
     5  C    2.827533   3.432978   2.462547   2.438584   0.000000
     6  C    2.438584   3.917358   1.424586   2.827533   1.433914
     7  H    4.889774   4.809037   4.632864   2.141891   2.174187
     8  H    6.149944   6.778921   5.344864   1.093087   3.429332
     9  H    4.095969   5.958296   2.723426   3.416855   3.442929
    10  C    2.430149   2.151248   2.810954   3.750156   1.424279
    11  H    3.416855   2.477896   3.897018   4.095969   2.170845
    12  H    1.093087   2.500456   2.145000   6.149944   3.920562
    13  C    3.750156   5.341426   2.493948   2.430149   2.460732
    14  H    2.141891   4.308150   1.089085   4.889774   3.447459
    15  C    1.420315   1.094513   2.425868   4.876636   2.438075
    16  C    4.876636   6.147382   3.750464   1.420315   2.822965
    17  H    5.855040   7.225369   4.641978   2.176021   3.917358
    18  C    4.251814   4.641978   3.759129   1.378835   1.424586
                    6          7          8          9         10
     6  C    0.000000
     7  H    3.447459   0.000000
     8  H    3.920562   2.468710   0.000000
     9  H    2.170845   4.986087   4.313798   0.000000
    10  C    2.460732   2.725724   4.636075   4.627570   0.000000
    11  H    3.442929   2.502244   4.799218   5.574635   1.086090
    12  H    3.429332   5.965949   7.225382   4.799218   3.415494
    13  C    1.424279   3.900020   3.415494   1.086090   3.756519
    14  H    2.174187   5.582832   5.965949   2.502244   3.900020
    15  C    2.822965   4.099304   5.850463   4.882109   1.380011
    16  C    2.438075   3.415407   2.181846   2.142098   4.246949
    17  H    3.432978   4.308150   2.500456   2.477896   5.341426
    18  C    2.462547   1.089085   2.145000   3.897018   2.493948
                   11         12         13         14         15
    11  H    0.000000
    12  H    4.313798   0.000000
    13  C    4.627570   4.636075   0.000000
    14  H    4.986087   2.468710   2.725724   0.000000
    15  C    2.142098   2.181846   4.246949   3.415407   0.000000
    16  C    4.882109   5.850463   1.380011   4.099304   5.076473
    17  H    5.958296   6.778921   2.151248   4.809037   6.147382
    18  C    2.723426   5.344864   2.810954   4.632864   3.750464
                   16         17         18
    16  C    0.000000
    17  H    1.094513   0.000000
    18  C    2.425868   3.408891   0.000000
 Stoichiometry    C10H8
 Framework group  CI[X(C10H8)]
 Deg. of freedom    24
 Full point group                 CI      NOp   2
 Largest Abelian subgroup         CI      NOp   2
 Largest concise Abelian subgroup CI      NOp   2
                         Standard orientation:                         
 ---------------------------------------------------------------------
 Center     Atomic      Atomic             Coordinates (Angstroms)
 Number     Number       Type             X           Y           Z
 ---------------------------------------------------------------------
      1          6           0       -0.945197    0.110616    2.356089
      2          1           0       -1.962019   -1.811679    2.433062
      3          6           0       -0.183017    0.973512    1.597355
      4          6           0        0.945197   -0.110616   -2.356089
      5          6           0       -0.209149   -0.629662   -0.271679
      6          6           0        0.209149    0.629662    0.271679
      7          1           0       -0.125938   -1.932867   -2.010017
      8          1           0        1.227235   -0.384496   -3.376032
      9          1           0        1.310409    2.456584   -0.131005
     10          6           0       -0.999373   -1.497618    0.535025
     11          1           0       -1.310409   -2.456584    0.131005
     12          1           0       -1.227235    0.384496    3.376032
     13          6           0        0.999373    1.497618   -0.535025
     14          1           0        0.125938    1.932867    2.010017
     15          6           0       -1.353695   -1.139511    1.819799
     16          6           0        1.353695    1.139511   -1.819799
     17          1           0        1.962019    1.811679   -2.433062
     18          6           0        0.183017   -0.973512   -1.597355
 ---------------------------------------------------------------------
 Rotational constants (GHZ):           3.1058431           1.2247435           0.8783743
 Standard basis: 6-31+G(d) (6D, 7F)
 There are   103 symmetry adapted cartesian basis functions of AG  symmetry.
 There are   103 symmetry adapted cartesian basis functions of AU  symmetry.
 There are   103 symmetry adapted basis functions of AG  symmetry.
 There are   103 symmetry adapted basis functions of AU  symmetry.
   206 basis functions,   352 primitive gaussians,   206 cartesian basis functions
    34 alpha electrons       34 beta electrons
       nuclear repulsion energy       456.2249858951 Hartrees.
 NAtoms=   18 NActive=   18 NUniq=    9 SFac= 4.00D+00 NAtFMM=   60 NAOKFM=F Big=F
 Integral buffers will be    131072 words long.
 Raffenetti 2 integral format.
 Two-electron integral symmetry is turned on.
 One-electron integrals computed using PRISM.
 NBasis=   206 RedAO= T EigKep=  1.42D-06  NBF=   103   103
 NBsUse=   205 1.00D-06 EigRej=  7.52D-07 NBFU=   102   103
 Initial guess from the checkpoint file:  "/home/wangzhe/g16/Scratch/Gau-28868.chk"
 B after Tr=     0.000000    0.000000   -0.000000
         Rot=    1.000000   -0.000534    0.000432    0.000308 Ang=  -0.09 deg.
 Initial guess orbital symmetries:
       Occupied  (AG) (AU) (AU) (AG) (AG) (AU) (AU) (AG) (AU) (AG)
                 (AG) (AU) (AU) (AG) (AG) (AU) (AU) (AG) (AU) (AG)
                 (AG) (AU) (AG) (AG) (AU) (AU) (AU) (AU) (AG) (AG)
                 (AG) (AG) (AU) (AU)
       Virtual   (AG) (AG) (AU) (AG) (AU) (AU) (AG) (AG) (AU) (AU)
                 (AG) (AU) (AG) (AU) (AG) (AU) (AG) (AG) (AU) (AU)
                 (AU) (AU) (AG) (AU) (AU) (AG) (AG) (AG) (AG) (AU)
                 (AU) (AG) (AU) (AG) (AG) (AU) (AG) (AG) (AU) (AG)
                 (AU) (AU) (AU) (AG) (AG) (AU) (AU) (AG) (AU) (AU)
                 (AG) (AG) (AU) (AG) (AU) (AG) (AG) (AU) (AU) (AU)
                 (AG) (AU) (AG) (AU) (AG) (AU) (AG) (AG) (AU) (AU)
                 (AG) (AU) (AG) (AU) (AG) (AG) (AG) (AU) (AU) (AU)
                 (AG) (AU) (AG) (AU) (AG) (AU) (AG) (AG) (AU) (AG)
                 (AU) (AG) (AU) (AG) (AU) (AG) (AU) (AU) (AG) (AG)
                 (AU) (AU) (AU) (AG) (AG) (AU) (AG) (AU) (AG) (AU)
                 (AG) (AG) (AG) (AU) (AU) (AU) (AG) (AU) (AG) (AG)
                 (AU) (AG) (AG) (AU) (AU) (AU) (AG) (AU) (AG) (AU)
                 (AG) (AU) (AU) (AG) (AG) (AU) (AG) (AG) (AG) (AU)
                 (AG) (AU) (AG) (AU) (AU) (AU) (AU) (AG) (AG) (AU)
                 (AG) (AG) (AU) (AG) (AU) (AG) (AU) (AG) (AU) (AU)
                 (AG) (AG) (AU) (AG) (AU) (AG) (AU) (AU) (AG) (AG)
                 (AU)
 ExpMin= 4.38D-02 ExpMax= 3.05D+03 ExpMxC= 4.57D+02 IAcc=3 IRadAn=         5 AccDes= 0.00D+00
 Harris functional with IExCor=  402 and IRadAn=       5 diagonalized for initial guess.
 HarFok:  IExCor=  402 AccDes= 0.00D+00 IRadAn=         5 IDoV= 1 UseB2=F ITyADJ=14
 ICtDFT=  3500011 ScaDFX=  1.000000  1.000000  1.000000  1.000000
 FoFCou: FMM=F IPFlag=           0 FMFlag=      100000 FMFlg1=           0
         NFxFlg=           0 DoJE=T BraDBF=F KetDBF=T FulRan=T
         wScrn=  0.000000 ICntrl=       500 IOpCl=  0 I1Cent=   200000004 NGrid=           0
         NMat0=    1 NMatS0=      1 NMatT0=    0 NMatD0=    1 NMtDS0=    0 NMtDT0=    0
 Petite list used in FoFCou.
 Keep R1 ints in memory in symmetry-blocked form, NReq=341008791.
 Requested convergence on RMS density matrix=1.00D-08 within 128 cycles.
 Requested convergence on MAX density matrix=1.00D-06.
 Requested convergence on             energy=1.00D-06.
 No special actions if energy rises.
 SCF Done:  E(RB3LYP) =  -385.906691593     A.U. after   12 cycles
            NFock= 12  Conv=0.20D-08     -V/T= 2.0102
 Calling FoFJK, ICntrl=      2127 FMM=F ISym2X=1 I1Cent= 0 IOpClX= 0 NMat=1 NMatS=1 NMatT=0.
 ***** Axes restored to original set *****
 -------------------------------------------------------------------
 Center     Atomic                   Forces (Hartrees/Bohr)
 Number     Number              X              Y              Z
 -------------------------------------------------------------------
      1        6          -0.000052337   -0.000233589    0.002100527
      2        1           0.003022179    0.002424562   -0.003163632
      3        6          -0.000110291   -0.000284265    0.000027894
      4        6           0.000052337    0.000233589   -0.002100527
      5        6          -0.000185552   -0.002201793   -0.000382992
      6        6           0.000185552    0.002201793    0.000382992
      7        1          -0.000462175    0.000594557    0.000960578
      8        1          -0.000411108    0.001230921    0.003985672
      9        1           0.000454242    0.000753042    0.001080012
     10        6           0.001259660    0.001812932    0.002596124
     11        1          -0.000454242   -0.000753042   -0.001080012
     12        1           0.000411108   -0.001230921   -0.003985672
     13        6          -0.001259660   -0.001812932   -0.002596124
     14        1           0.000462175   -0.000594557   -0.000960578
     15        6          -0.003172668   -0.001351410    0.002675901
     16        6           0.003172668    0.001351410   -0.002675901
     17        1          -0.003022179   -0.002424562    0.003163632
     18        6           0.000110291    0.000284265   -0.000027894
 -------------------------------------------------------------------
 Cartesian Forces:  Max     0.003985672 RMS     0.001787593

 GradGradGradGradGradGradGradGradGradGradGradGradGradGradGradGradGradGrad
 Berny optimization.
 Using GEDIIS/GDIIS optimizer.
 FormGI is forming the generalized inverse of G from B-inverse, IUseBI=4.
 Internal  Forces:  Max     0.004941323 RMS     0.001132729
 Search for a local minimum.
 Step number   3 out of a maximum of  103
 All quantities printed in internal units (Hartrees-Bohrs-Radians)
 Mixed Optimization -- RFO/linear search
 Update second derivatives using D2CorX and points    2    3
 DE= -2.42D-02 DEPred=-1.43D-02 R= 1.69D+00
 TightC=F SS=  1.41D+00  RLast= 3.93D-01 DXNew= 8.4853D-01 1.1790D+00
 Trust test= 1.69D+00 RLast= 3.93D-01 DXMaxT set to 8.49D-01
 ITU=  1  1  0
 Use linear search instead of GDIIS.
     Eigenvalues ---    0.01783   0.01796   0.01800   0.01980   0.02007
     Eigenvalues ---    0.02031   0.02038   0.02090   0.02090   0.02153
     Eigenvalues ---    0.02155   0.02171   0.02199   0.02262   0.02274
     Eigenvalues ---    0.15985   0.15998   0.15998   0.15999   0.15999
     Eigenvalues ---    0.16000   0.16000   0.16003   0.22000   0.22005
     Eigenvalues ---    0.22334   0.22759   0.24274   0.24709   0.37374
     Eigenvalues ---    0.39451   0.39904   0.41081   0.41275   0.42970
     Eigenvalues ---    0.43320   0.44019   0.47742   0.47978   0.49138
     Eigenvalues ---    0.49278   0.49542   0.50318   0.51463   0.53385
     Eigenvalues ---    0.55800   0.57226   0.58348
[...]
 542949,-0.0761505,0.0620608,0.0930702,-0.0839716,-0.006622,-0.0641767,
 -0.0661081,-0.0886928,0.0172208,-0.0419224,0.0420965,0.1041409,-0.0151
 652,0.0718315,-0.0130311,0.0670893,-0.0599814,0.0743698,-0.0549317,-0.
 0988316,0.095665,-0.0596136,0.0165567,-0.0795066,-0.0625445,-0.0483054
 ,-0.0073272,-0.09504,0.0359956,-0.0862986,0.0855943,-0.0299735,0.09829
 13,0.0805382,0.0371422,-0.0146842,0.0671425,-0.0276445,0.095665,-0.059
 6136,0.0165567,-0.0795067,-0.0625445,-0.0483054,-0.0073272,-0.09504,0.
 0359956,0.1041409,-0.0151652,0.0718315,-0.0130311,0.0670893,-0.0599814
 ,0.0743698,-0.0549317,-0.0988316,-0.0862986,0.0855942,-0.0299735,0.098
 2913,0.0805383,0.0371423,-0.0146842,0.0671425,-0.0276445,0.0930702,-0.
 0839716,-0.006622,-0.0641767,-0.0661081,-0.0886928,0.0172208,-0.041922
 4,0.0420965,-0.0720635,0.1161731,-0.0335849,0.1011265,0.0474646,-0.005
 679,-0.0518516,-0.0412942,-0.072946,-0.0720635,0.1161731,-0.033585,0.1
 011265,0.0474646,-0.005679,-0.0518516,-0.0412942,-0.072946,0.0575271,-
 0.0942854,0.0864208,-0.0964595,0.0036443,0.0602087,0.0838827,0.0551614
 ,0.0112116,-0.0985413,0.0770811,-0.0114459,0.0644252,0.0640985,0.09714
 5,-0.0267263,0.0671601,0.0010956\Polar=89.9694608,25.6797275,111.96495
 42,-36.4367095,0.4182821,147.7026616\Quadrupole=-3.3861442,1.3887307,1
 .9974135,3.3286288,-2.8057028,1.3865595\PG=CI [X(C10H8)]\NImag=0\\0.31
 017674,0.19026767,0.56031971,-0.19312238,0.06872790,0.66837524,-0.0019
 1877,-0.00408846,0.00566269,0.12734393,-0.01516591,-0.01247262,0.01761
 275,0.11479091,0.16786449,-0.00767884,-0.00849481,0.01043943,-0.102669
 33,-0.09860322,0.14828642,-0.15948307,-0.10260019,0.11101675,0.0037063
 4,-0.00242741,0.00046767,0.31760844,-0.12285901,-0.21565096,0.10182228
 ,-0.00283686,-0.00307114,-0.00320290,0.22952386,0.63893935,0.08666292,
 0.05413449,-0.19880294,-0.00002772,-0.00416939,0.00018713,-0.15736655,
 0.06783493,0.58574035,-0.00466734,-0.00872874,0.00092044,-0.00051765,0
 .00035249,-0.00000332,0.00342253,0.00117361,-0.00849730,0.31017674,-0.
 00872874,-0.01584957,0.00126024,0.00033339,0.00001317,0.00006967,0.008
 05284,0.00176487,-0.01589940,0.19026767,0.56031971,0.00092044,0.001260
 24,-0.00046724,-0.00002534,0.00002651,-0.00060693,-0.00021555,0.000305
 46,0.00009196,-0.19312238,0.06872790,0.66837524,-0.01714554,-0.0214824
 2,-0.00003221,0.00632572,-0.00211693,0.00278069,0.01954732,0.01114051,
 -0.02008653,-0.00950874,-0.01010661,0.02450614,0.31775106,-0.01459267,
 -0.03114526,0.00435109,-0.00167201,0.00166184,-0.00440310,0.01607183,0
 .00030199,-0.04391449,0.00206591,0.02500919,0.01790307,0.17264588,0.54
 913950,0.00826065,0.02057930,-0.00088082,0.00332069,-0.00335135,-0.003
 26218,-0.01414620,-0.03230614,-0.00022258,0.03916904,0.04660720,-0.030
 11239,-0.16149450,0.06070313,0.61446364,-0.00950874,-0.01010661,0.0245
 0614,-0.00009268,0.00048813,-0.00012137,-0.08746463,0.00166225,0.05393
 289,-0.01714554,-0.02148242,-0.00003221,-0.10365582,-0.05315347,0.0070
 5627,0.31775106,0.00206591,0.02500919,0.01790307,0.00032994,-0.0001363
 8,-0.00046883,-0.00835077,-0.12210095,-0.04862208,-0.01459267,-0.03114
 526,0.00435109,-0.05315347,-0.21761681,-0.04831972,0.17264588,0.549139
 50,0.03916904,0.04660720,-0.03011239,-0.00031028,-0.00084082,-0.000671
 27,0.04190123,-0.07216239,-0.25100420,0.00826065,0.02057930,-0.0008808
 2,0.00705627,-0.04831972,-0.14827991,-0.16149450,0.06070313,0.61446364
 ,0.00002513,0.00018337,-0.00006259,0.00012011,-0.00006347,0.00003201,0
 .00019428,0.00037319,0.00021759,-0.00105068,-0.01606944,-0.00778522,0.
 00552094,0.00740889,0.00344727,0.00311728,-0.00132263,0.00302106,0.060
 26608,0.00015995,0.00023605,0.00002197,-0.00003686,0.00003458,-0.00007
 164,-0.00039881,-0.00039181,0.00035241,-0.00482552,-0.01350423,-0.0095
 2489,-0.00303336,-0.00441705,-0.00202680,-0.00074954,0.00222345,-0.001
 66738,0.08821402,0.28333035,-0.00009036,-0.00003185,0.00007896,0.00006
 405,-0.00000893,0.00000456,-0.00071261,-0.00146661,0.00000822,0.005742
 91,0.01694677,0.01072300,-0.00911486,-0.02661413,-0.00736929,0.0037118
 3,-0.00031703,-0.00404872,0.02219371,0.10358274,0.09699852,0.00004856,
 -0.00021932,0.00001565,-0.00004808,0.00003485,0.00008318,-0.00051829,0
 .00043240,-0.00041951,-0.06310481,0.01027059,0.07573024,0.00429252,-0.
 00565875,0.00330697,-0.00054550,-0.00030147,-0.00000398,-0.00306148,0.
 00197667,-0.00189125,0.05680544,-0.00017504,-0.00021923,-0.00005297,-0
 .00001590,0.00002630,0.00010576,0.00052819,0.00002177,-0.00011345,0.01
 042007,-0.07350455,-0.06942680,-0.00521238,-0.00110083,0.00061222,-0.0
 0046003,-0.00075302,0.00065019,0.00221674,-0.00007481,0.00055704,-0.00
 815073,0.07194320,0.00006968,0.00005234,0.00006631,0.00002211,-0.00001
 367,-0.00009912,-0.00030507,0.00011194,-0.00006472,0.07590814,-0.06906
 852,-0.29801963,0.00384724,0.00166365,0.00153454,-0.00019398,0.0002776
 1,0.00039736,-0.00160311,0.00112163,0.00024939,-0.08439428,0.07551675,
 0.31469600,-0.00006416,0.00021022,0.00006117,0.00002983,0.00002061,0.0
 0004685,-0.00167111,0.00096963,-0.00217698,0.00525598,-0.00215468,0.00
 383426,0.00197944,-0.00273141,0.00400719,-0.00169909,-0.01560853,-0.00
 724087,-0.00081208,0.00041989,-0.00045843,0.00030611,0.00034058,0.0002
 8195,0.06016977,-0.00007108,-0.00001850,0.00031938,-0.00001950,0.00004
 663,0.00005501,0.00214868,0.00021386,-0.00107605,-0.00162587,0.0028264
 4,-0.00237923,-0.00330404,0.00067756,0.00248840,-0.00516202,-0.0142232
 4,-0.00881314,0.00042521,-0.00030537,0.00010086,-0.00024867,-0.0002559
 7,-0.00002543,0.08810890,0.28332119,-0.00027839,-0.00034494,0.00009481
 ,-0.00000147,-0.00003958,-0.00000498,-0.00075918,0.00168886,0.00073371
 ,0.00447006,-0.00113607,-0.00391169,0.00331643,0.00113872,-0.00136557,
 0.00532381,0.01578227,0.00966011,-0.00045185,0.00011345,-0.00002031,-0
 .00042787,-0.00141459,-0.00044309,0.02224160,0.10386479,0.09721011,0.0
 2267463,0.02287780,-0.00754694,-0.00105585,0.00539840,0.01703937,-0.01
 490400,-0.00539990,0.01934755,0.01127721,0.00991805,-0.00038170,-0.132
 29735,-0.07639840,0.06556626,-0.00022651,-0.02329333,-0.01495031,-0.00
 178948,0.00076426,-0.00214626,0.00036690,-0.00001313,0.00000942,0.0000
 0946,0.00005133,0.00026546,0.29140431,0.00834409,-0.00261638,-0.032181
 85,-0.00575579,0.00905213,0.02034096,-0.00321348,-0.00400882,0.0074613
 0,0.00314776,0.00735556,-0.00583810,-0.08641403,-0.18300300,0.06195562
 ,-0.01836983,-0.02657082,0.00486575,0.00194482,0.00005379,-0.00079046,
 0.00052647,0.00078998,-0.00074311,-0.00072088,-0.00064325,0.00080860,0
 .18400200,0.60353258,-0.02505356,-0.06639710,-0.01315537,0.00361154,-0
 .00593497,-0.01223769,0.02198715,0.01261770,-0.04052897,-0.00853142,-0
 .02178439,-0.00008040,0.05354351,0.03840061,-0.14530364,-0.00901609,0.
 01647641,0.04641826,-0.00072509,0.00198177,0.00100907,0.00065903,0.000
 52770,-0.00053854,-0.00066503,-0.00101072,0.00044419,-0.15052305,0.132
 42954,0.64745991,0.00525598,-0.00215468,0.00383426,-0.00308558,0.00193
 531,-0.00188496,-0.00055400,0.00018514,0.00035850,-0.00006416,0.000210
 22,0.00006117,-0.00169909,-0.01560853,-0.00724087,0.00197944,-0.002731
 41,0.00400719,0.00018230,0.00029710,0.00067431,0.00010853,-0.00005711,
 0.00006708,-0.00002617,-0.00025670,0.00021754,-0.06642432,-0.07904555,
 -0.02312120,0.06016977,-0.00162587,0.00282644,-0.00237923,0.00217499,-
 0.00010663,0.00061489,0.00013614,0.00024910,0.00057558,-0.00007108,-0.
 00001850,0.00031938,-0.00516202,-0.01422324,-0.00881314,-0.00330404,0.
 00067756,0.00248840,-0.00031211,0.00047370,0.00091716,-0.00008358,0.00
 001882,0.00001964,-0.00025670,-0.00017996,0.00015033,-0.07883146,-0.26
 877652,-0.09465855,0.08810890,0.28332119,0.00447006,-0.00113607,-0.003
 91169,-0.00159609,0.00117947,0.00030588,0.00030203,0.00046434,-0.00064
 945,-0.00027839,-0.00034494,0.00009481,0.00532381,0.01578227,0.0096601
 1,0.00331643,0.00113872,-0.00136557,-0.00005598,-0.00050612,-0.0001679
 9,0.00003499,-0.00004294,0.00003194,0.00021754,0.00015033,-0.00013403,
 -0.02285577,-0.09414431,-0.09531892,0.02224160,0.10386479,0.09721011,-
 0.06310481,0.01027059,0.07573024,-0.00169922,0.00149962,-0.00084362,-0
 .00095439,0.00558343,0.01701297,0.00004856,-0.00021932,0.00001565,-0.0
 0054550,-0.00030147,-0.00000398,0.00429252,-0.00565875,0.00330697,0.00
 002553,0.00001324,0.00004795,0.00005166,-0.00001851,0.00002983,0.00010
 853,-0.00008358,0.00003499,0.00310752,-0.00346661,0.00062238,0.0003061
 1,-0.00024867,-0.00042787,0.05680544,0.01042007,-0.07350455,-0.0694268
 0,0.00119526,0.00034103,0.00099528,-0.00557384,0.00919518,0.02007796,-
 0.00017504,-0.00021923,-0.00005297,-0.00046003,-0.00075302,0.00065019,
 -0.00521238,-0.00110083,0.00061222,-0.00002694,0.00004084,0.00006549,-
 0.00001851,0.00002239,-0.00001823,-0.00005711,0.00001882,-0.00004294,-
 0.00387707,-0.00388158,-0.00173059,0.00034058,-0.00025597,-0.00141459,
 -0.00815073,0.07194320,0.07590814,-0.06906852,-0.29801963,-0.00121164,
 0.00027670,0.00036095,0.00358666,-0.00619488,-0.01248025,0.00006968,0.
 00005234,0.00006631,-0.00019398,0.00027761,0.00039736,0.00384724,0.001
 66365,0.00153454,-0.00000037,-0.00002907,0.00000504,0.00002983,-0.0000
 1823,-0.00001836,0.00006708,0.00001964,0.00003194,0.00012888,-0.002697
 13,0.00159657,0.00028195,-0.00002543,-0.00044309,-0.08439428,0.0755167
 5,0.31469600,0.01127721,0.00991805,-0.00038170,-0.00063195,0.00023342,
 -0.00039002,-0.01115513,-0.00739036,0.02563076,0.02267463,0.02287780,-
 0.00754694,-0.00022651,-0.02329333,-0.01495031,-0.13229735,-0.07639840
 ,0.06556626,-0.00049017,0.00029574,0.00034209,0.00310752,-0.00387707,0
 .00012888,-0.06642432,-0.07883146,-0.02285577,0.00017060,-0.00415242,0
 .00687474,0.00000946,0.00005133,0.00026546,0.00036690,-0.00001313,0.00
 000942,0.29140431,0.00314776,0.00735556,-0.00583810,0.00032940,-0.0001
 3331,0.00016834,-0.00037099,0.00990060,0.00857090,0.00834409,-0.002616
 38,-0.03218185,-0.01836983,-0.02657082,0.00486575,-0.08641403,-0.18300
 300,0.06195562,0.00024981,0.00033605,0.00041704,-0.00346661,-0.0038815
 8,-0.00269713,-0.07904555,-0.26877652,-0.09414431,-0.00415242,-0.00354
 329,-0.00075889,-0.00072088,-0.00064325,0.00080860,0.00052647,0.000789
 98,-0.00074311,0.18400200,0.60353258,-0.00853142,-0.02178439,-0.000080
 40,-0.00027589,0.00039363,0.00020429,0.03408269,0.02511477,-0.04654567
 ,-0.02505356,-0.06639710,-0.01315537,-0.00901609,0.01647641,0.04641826
 ,0.05354351,0.03840061,-0.14530364,0.00028586,0.00030507,-0.00080055,0
 .00062238,-0.00173059,0.00159657,-0.02312120,-0.09465855,-0.09531892,0
 .00687474,-0.00075889,-0.01189606,-0.00066503,-0.00101072,0.00044419,0
 .00065903,0.00052770,-0.00053854,-0.15052305,0.13242954,0.64745991,-0.
 00105068,-0.01606944,-0.00778522,-0.00004893,-0.00086742,-0.00033615,-
 0.06612366,-0.07823923,-0.02290873,0.00002513,0.00018337,-0.00006259,0
 .00311728,-0.00132263,0.00302106,0.00552094,0.00740889,0.00344727,0.00
 010113,-0.00003523,0.00018451,0.00002553,-0.00002694,-0.00000037,0.000
 18230,-0.00031211,-0.00005598,-0.00049017,0.00024981,0.00028586,-0.000
 81208,0.00042521,-0.00045185,-0.00306148,0.00221674,-0.00160311,-0.001
 78948,0.00194482,-0.00072509,0.06026608,-0.00482552,-0.01350423,-0.009
 52489,-0.00027727,-0.00073843,-0.00053872,-0.07846016,-0.26823984,-0.0
 9484329,0.00015995,0.00023605,0.00002197,-0.00074954,0.00222345,-0.001
 66738,-0.00303336,-0.00441705,-0.00202680,-0.00003523,-0.00000716,-0.0
 0016342,0.00001324,0.00004084,-0.00002907,0.00029710,0.00047370,-0.000
 50612,0.00029574,0.00033605,0.00030507,0.00041989,-0.00030537,0.000113
 45,0.00197667,-0.00007481,0.00112163,0.00076426,0.00005379,0.00198177,
 0.08821402,0.28333035,0.00574291,0.01694677,0.01072300,0.00037393,0.00
 085000,0.00039411,-0.02317192,-0.09535659,-0.09603903,-0.00009036,-0.0
 0003185,0.00007896,0.00371183,-0.00031703,-0.00404872,-0.00911486,-0.0
 2661413,-0.00736929,0.00018451,-0.00016342,-0.00043402,0.00004795,0.00
 006549,0.00000504,0.00067431,0.00091716,-0.00016799,0.00034209,0.00041
 704,-0.00080055,-0.00045843,0.00010086,-0.00002031,-0.00189125,0.00055
 704,0.00024939,-0.00214626,-0.00079046,0.00100907,0.02219371,0.1035827
 4,0.09699852,-0.09546414,-0.07688633,-0.01283242,-0.12867165,-0.104012
 51,0.09271559,-0.00392354,-0.02345456,-0.00065614,0.00004412,0.0002222
 6,0.00025701,-0.00247574,0.00213834,0.02268128,-0.00342267,0.00242266,
 -0.00359176,-0.00006733,0.00020469,0.00006231,-0.00065892,0.00008738,0
 .00001117,-0.00003631,0.00007618,-0.00004678,-0.09879821,0.00302796,0.
 09525228,0.00633141,-0.00320642,-0.00969856,0.00547792,0.00879247,0.00
 374629,-0.00123766,-0.00006275,0.00099217,0.00389102,-0.00452882,0.004
 18809,0.31618838,-0.05501667,-0.24538028,-0.09155759,-0.10385685,-0.16
 267193,0.09242655,-0.03797268,-0.03876326,0.03343421,0.00712896,0.0128
 3660,-0.00138925,0.01431657,0.03455972,0.00055344,0.00931132,-0.012505
 89,-0.02952750,-0.00007772,-0.00002349,0.00032791,0.00010525,-0.000179
 38,0.00037580,0.00005368,0.00015303,0.00017343,-0.01724270,-0.13327838
 ,-0.04777173,0.00803379,-0.00347090,-0.02773569,-0.00229488,-0.0024301
 4,-0.00062603,-0.00694223,-0.00456534,0.01179974,-0.00400185,0.0009733
 9,0.00098400,0.20088979,0.56867077,0.01348036,-0.04010095,-0.14159366,
 0.09289630,0.09278209,-0.14333583,-0.01814320,-0.00079108,0.04958621,0
 .00857138,0.01488012,-0.00223864,0.03734371,0.02926340,-0.04670246,0.0
 0469702,-0.01330059,-0.03325088,-0.00027754,-0.00033561,0.00010289,0.0
 0003319,0.00041940,-0.00027296,-0.00007394,0.00011919,0.00022375,0.070
 87905,-0.09546098,-0.34181032,0.00383097,-0.00126211,-0.00668845,-0.00
 959587,-0.02672822,-0.00700143,-0.00728951,-0.00440320,0.01108386,0.00
 482461,0.00222789,-0.00069385,-0.19462937,0.05370213,0.65402613,0.0000
 4412,0.00022226,0.00025701,0.00013153,-0.00007481,-0.00000577,0.002714
 01,-0.00499623,0.00183798,-0.09546414,-0.07688633,-0.01283242,-0.00342
 267,0.00242266,-0.00359176,-0.00247574,0.00213834,0.02268128,0.0038910
 2,-0.00452882,0.00418809,0.00547792,0.00879247,0.00374629,0.00633141,-
 0.00320642,-0.00969856,-0.00123766,-0.00006275,0.00099217,-0.00003631,
 0.00007618,-0.00004678,-0.00065892,0.00008738,0.00001117,-0.09879821,0
 .00302796,0.09525228,-0.00006733,0.00020469,0.00006231,-0.00002223,-0.
 00063928,-0.00028337,0.31618838,0.00712896,0.01283660,-0.00138925,-0.0
 0002964,-0.00010633,-0.00025796,-0.01176486,-0.00427966,0.01528652,-0.
 05501667,-0.24538028,-0.09155759,0.00931132,-0.01250589,-0.02952750,0.
 01431657,0.03455972,0.00055344,-0.00400185,0.00097339,0.00098400,-0.00
 229488,-0.00243014,-0.00062603,0.00803379,-0.00347090,-0.02773569,-0.0
 0694223,-0.00456534,0.01179974,0.00005368,0.00015303,0.00017343,0.0001
 0525,-0.00017938,0.00037580,-0.01724270,-0.13327838,-0.04777173,-0.000
 07772,-0.00002349,0.00032791,-0.00063928,-0.00953854,-0.01019799,0.200
 88979,0.56867077,0.00857138,0.01488012,-0.00223864,0.00004860,-0.00015
 308,-0.00012954,-0.00631239,-0.00066043,0.02011933,0.01348036,-0.04010
 095,-0.14159366,0.00469702,-0.01330059,-0.03325088,0.03734371,0.029263
 40,-0.04670246,0.00482461,0.00222789,-0.00069385,-0.00959587,-0.026728
 22,-0.00700143,0.00383097,-0.00126211,-0.00668845,-0.00728951,-0.00440
 320,0.01108386,-0.00007394,0.00011919,0.00022375,0.00003319,0.00041940
 ,-0.00027296,0.07087905,-0.09546098,-0.34181032,-0.00027754,-0.0003356
 1,0.00010289,-0.00028337,-0.01019799,-0.01142414,-0.19462937,0.0537021
 3,0.65402613,-0.00051765,0.00033339,-0.00002534,0.00004153,-0.00003610
 ,0.00003242,0.00007137,-0.00052866,0.00008544,-0.00191877,-0.00408846,
 0.00566269,-0.00009268,0.00032994,-0.00031028,0.00632572,-0.00167201,0
 .00332069,-0.00004893,-0.00027727,0.00037393,-0.00169922,0.00119526,-0
 .00121164,-0.00308558,0.00217499,-0.00159609,-0.00063195,0.00032940,-0
 .00027589,0.00002983,-0.00001950,-0.00000147,-0.00004808,-0.00001590,0
 .00002211,-0.00105585,-0.00575579,0.00361154,0.00012011,-0.00003686,0.
 00006405,0.00013153,-0.00002964,0.00004860,-0.12867165,-0.10385685,0.0
 9289630,0.12734393,0.00035249,0.00001317,0.00002651,-0.00003610,0.0000
 0863,0.00000672,0.00001082,0.00038797,-0.00001289,-0.01516591,-0.01247
 262,0.01761275,0.00048813,-0.00013638,-0.00084082,-0.00211693,0.001661
 84,-0.00335135,-0.00086742,-0.00073843,0.00085000,0.00149962,0.0003410
 3,0.00027670,0.00193531,-0.00010663,0.00117947,0.00023342,-0.00013331,
 0.00039363,0.00002061,0.00004663,-0.00003958,0.00003485,0.00002630,-0.
 00001367,0.00539840,0.00905213,-0.00593497,-0.00006347,0.00003458,-0.0
 0000893,-0.00007481,-0.00010633,-0.00015308,-0.10401251,-0.16267193,0.
 09278209,0.11479091,0.16786449,-0.00000332,0.00006967,-0.00060693,0.00
 003242,0.00000672,0.00000548,0.00073559,0.00125799,0.00015927,-0.00767
 884,-0.00849481,0.01043943,-0.00012137,-0.00046883,-0.00067127,0.00278
 069,-0.00440310,-0.00326218,-0.00033615,-0.00053872,0.00039411,-0.0008
 4362,0.00099528,0.00036095,-0.00188496,0.00061489,0.00030588,-0.000390
 02,0.00016834,0.00020429,0.00004685,0.00005501,-0.00000498,0.00008318,
 0.00010576,-0.00009912,0.01703937,0.02034096,-0.01223769,0.00003201,-0
 .00007164,0.00000456,-0.00000577,-0.00025796,-0.00012954,0.09271559,0.
 09242655,-0.14333583,-0.10266933,-0.09860322,0.14828642,0.00342253,0.0
 0805284,-0.00021555,0.00007137,0.00001082,0.00073559,-0.00051246,-0.00
 533919,0.00705287,-0.15948307,-0.10260019,0.11101675,-0.08746463,-0.00
 835077,0.04190123,0.01954732,0.01607183,-0.01414620,-0.06612366,-0.078
 46016,-0.02317192,-0.00095439,-0.00557384,0.00358666,-0.00055400,0.000
 13614,0.00030203,-0.01115513,-0.00037099,0.03408269,-0.00167111,0.0021
 4868,-0.00075918,-0.00051829,0.00052819,-0.00030507,-0.01490400,-0.003
 21348,0.02198715,0.00019428,-0.00039881,-0.00071261,0.00271401,-0.0117
 6486,-0.00631239,-0.00392354,-0.03797268,-0.01814320,0.00370634,-0.002
 42741,0.00046767,0.31760844,0.00117361,0.00176487,0.00030546,-0.000528
 66,0.00038797,0.00125799,-0.00533919,-0.00446826,0.00092273,-0.1228590
 1,-0.21565096,0.10182228,0.00166225,-0.12210095,-0.07216239,0.01114051
 ,0.00030199,-0.03230614,-0.07823923,-0.26823984,-0.09535659,0.00558343
 ,0.00919518,-0.00619488,0.00018514,0.00024910,0.00046434,-0.00739036,0
 .00990060,0.02511477,0.00096963,0.00021386,0.00168886,0.00043240,0.000
 02177,0.00011194,-0.00539990,-0.00400882,0.01261770,0.00037319,-0.0003
 9181,-0.00146661,-0.00499623,-0.00427966,-0.00066043,-0.02345456,-0.03
 876326,-0.00079108,-0.00283686,-0.00307114,-0.00320290,0.22952386,0.63
 893935,-0.00849730,-0.01589940,0.00009196,0.00008544,-0.00001289,0.000
 15927,0.00705287,0.00092273,-0.01028838,0.08666292,0.05413449,-0.19880
 294,0.05393289,-0.04862208,-0.25100420,-0.02008653,-0.04391449,-0.0002
 2258,-0.02290873,-0.09484329,-0.09603903,0.01701297,0.02007796,-0.0124
 8025,0.00035850,0.00057558,-0.00064945,0.02563076,0.00857090,-0.046545
 67,-0.00217698,-0.00107605,0.00073371,-0.00041951,-0.00011345,-0.00006
 472,0.01934755,0.00746130,-0.04052897,0.00021759,0.00035241,0.00000822
 ,0.00183798,0.01528652,0.02011933,-0.00065614,0.03343421,0.04958621,-0
 .00002772,-0.00416939,0.00018713,-0.15736655,0.06783493,0.58574035\\0.
 00000706,0.00001175,0.00000666,0.00002233,0.00001650,-0.00001811,-0.00
 000942,0.00000332,0.00005523,-0.00000706,-0.00001175,-0.00000666,0.000
 00413,0.00001877,0.00000773,-0.00000413,-0.00001877,-0.00000773,0.0000
 0224,0.00000497,0.00001029,0.00000489,0.00000521,0.00001457,-0.0000266
 5,-0.00005322,-0.00000658,-0.00003601,-0.00008053,-0.00001143,0.000026
 65,0.00005322,0.00000658,-0.00000489,-0.00000521,-0.00001457,0.0000360
 1,0.00008053,0.00001143,-0.00000224,-0.00000497,-0.00001029,-0.0000178
 5,0.00000672,0.00004037,0.00001785,-0.00000672,-0.00004037,-0.00002233
 ,-0.00001650,0.00001811,0.00000942,-0.00000332,-0.00005523\\\@


 EDUCATION DOESN'T COST 
           ... IT PAYS!

 -- POSTMARK, UNIV. OF MISSISSIPPI, DEC 78
 Job cpu time:       0 days  0 hours  9 minutes 54.1 seconds.
 Elapsed time:       0 days  0 hours  1 minutes 14.8 seconds.
 File lengths (MBytes):  RWF=     54 Int=      0 D2E=      0 Chk=      5 Scr=      1
 Normal termination of Gaussian 16 at Tue Oct  3 11:10:03 2023.
