<?xml version="1.0"?>
 <VTKFile type="ImageData" version="0.1" byte_order="LittleEndian">
   <ImageData WholeExtent="           0          49           0          49           0          49 " Origin="  -8.0000000000000000       -7.0000000000000000       -6.0000000000000000      " Spacing="  0.32653061224489793       0.28571428571428570       0.24489795918367346      ">
   <Piece Extent="           0          49           0          49           0          49 ">
   <PointData Scalars="scalars">
   <DataArray Name="scalars" type="Float64" NumberOfComponents="1" Format="ascii">
  0.234933E-19
  0.619356E-19  0.141021E-18  0.277228E-18  0.472377E-18
  0.708307E-18  0.972783E-18  0.132004E-17  0.191519E-17
  0.297765E-17  0.459922E-17  0.655186E-17  0.827996E-17
  0.917537E-17  0.901215E-17  0.823965E-17  0.783470E-17
  0.865508E-17  0.106466E-16  0.125531E-16  0.125948E-16
  0.987182E-17  0.554575E-17  0.286804E-17  0.598003E-17
  0.183252E-16  0.416002E-16  0.754388E-16  0.117342E-15
  0.162482E-15  0.203790E-15  0.233331E-15  0.245387E-15
  0.239834E-15  0.222804E-15  0.202746E-15  0.184133E-15
  0.164679E-15  0.139820E-15  0.110485E-15  0.849924E-16
  0.716345E-16  0.699021E-16  0.706496E-16  0.648014E-16
  0.506530E-16  0.331295E-16  0.180946E-16  0.827288E-17
  0.317520E-17  0.753769E-19  0.196540E-18  0.440216E-18
  0.843995E-18  0.138274E-17  0.194855E-17  0.243924E-17
  0.296578E-17  0.401149E-17  0.627711E-17  0.101557E-16
  0.151942E-16  0.200461E-16  0.230452E-16  0.230220E-16
  0.198704E-16  0.146238E-16  0.903583E-17  0.477289E-17
  0.256735E-17  0.201643E-17  0.262752E-17  0.579823E-17
  0.162908E-16  0.417411E-16  0.901414E-16  0.166607E-15
  0.270694E-15  0.394636E-15  0.522759E-15  0.633387E-15
  0.704994E-15  0.726080E-15  0.703559E-15  0.661583E-15
  0.627026E-15  0.609641E-15  0.594652E-15  0.558967E-15
  0.498078E-15  0.433911E-15  0.391594E-15  0.370894E-15
  0.346379E-15  0.295056E-15  0.218404E-15  0.137521E-15
  0.731231E-16  0.327783E-16  0.123875E-16  0.215641E-18
  0.554057E-18  0.121441E-17  0.225335E-17  0.350833E-17
  0.455966E-17  0.505011E-17  0.536385E-17  0.711008E-17
  0.126232E-16  0.234527E-16  0.390633E-16  0.570833E-16
  0.748650E-16  0.906261E-16  0.103039E-15  0.110220E-15
  0.110047E-15  0.102198E-15  0.899761E-16  0.797668E-16
  0.788460E-16  0.947327E-16  0.137489E-15  0.221960E-15
  0.365578E-15  0.580793E-15  0.865229E-15  0.119417E-14
  0.151981E-14  0.178144E-14  0.192767E-14  0.194415E-14
  0.187076E-14  0.179007E-14  0.178215E-14  0.186850E-14
  0.199134E-14  0.205923E-14  0.202698E-14  0.192705E-14
  0.181367E-14  0.168745E-14  0.149556E-14  0.120435E-14
  0.850815E-15  0.516975E-15  0.267613E-15  0.117507E-15
  0.436724E-16  0.548176E-18  0.138042E-17  0.293711E-17
  0.520830E-17  0.754530E-17  0.870859E-17  0.801126E-17
  0.738060E-17  0.125180E-16  0.309745E-16  0.677348E-16
  0.122664E-15  0.193514E-15  0.281786E-15  0.393420E-15
  0.529849E-15  0.675745E-15  0.797111E-15  0.857499E-15
  0.843099E-15  0.775778E-15  0.702634E-15  0.674095E-15
  0.732074E-15  0.913510E-15  0.125403E-14  0.177620E-14
  0.246407E-14  0.324135E-14  0.397394E-14  0.450887E-14
  0.474209E-14  0.468528E-14  0.449057E-14  0.440341E-14
  0.464505E-14  0.527386E-14  0.612247E-14  0.689124E-14
  0.734597E-14  0.743255E-14  0.719396E-14  0.662310E-14
  0.566746E-14  0.437657E-14  0.297524E-14  0.175124E-14
  0.883722E-15  0.380132E-15  0.138866E-15  0.123235E-17
  0.301717E-17  0.615365E-17  0.102088E-16  0.132262E-16
  0.124912E-16  0.836057E-17  0.991615E-17  0.366938E-16
  0.110968E-15  0.244740E-15  0.436552E-15  0.688354E-15
  0.102903E-14  0.151230E-14  0.217027E-14  0.294710E-14
  0.367463E-14  0.413695E-14  0.419833E-14  0.389693E-14
  0.342469E-14  0.301803E-14  0.286133E-14  0.306751E-14
  0.370332E-14  0.478865E-14  0.624850E-14  0.786478E-14
  0.929800E-14  0.102090E-13  0.104354E-13  0.101226E-13
  0.972684E-14  0.987569E-14  0.111242E-13  0.136682E-13
  0.171504E-13  0.207487E-13  0.235573E-13  0.249534E-13
  0.246484E-13  0.225593E-13  0.188494E-13  0.141096E-13
  0.929896E-14  0.532471E-14  0.262487E-14  0.110697E-14
  0.397496E-15  0.243362E-17  0.572175E-17  0.109578E-16
  0.163649E-16  0.174392E-16  0.109124E-16  0.640753E-17
  0.400829E-16  0.173209E-15  0.463299E-15  0.926653E-15
  0.154110E-14  0.231582E-14  0.337712E-14  0.495903E-14
  0.723178E-14  0.100471E-13  0.128162E-13  0.147104E-13
  0.151239E-13  0.140662E-13  0.121539E-13  0.102303E-13
  0.896007E-14  0.868841E-14  0.952404E-14  0.114145E-13
  0.140921E-13  0.169969E-13  0.193683E-13  0.205698E-13
  0.204784E-13  0.196614E-13  0.192324E-13  0.205302E-13
  0.247733E-13  0.326237E-13  0.436302E-13  0.559353E-13
  0.667126E-13  0.731668E-13  0.734258E-13  0.670164E-13
  0.550900E-13  0.402928E-13  0.259051E-13  0.144900E-13
  0.699461E-14  0.289550E-14  0.102247E-14  0.418140E-17
  0.925412E-17  0.160469E-16  0.199424E-16  0.140321E-16
  0.394489E-17  0.397259E-16  0.243876E-15  0.788823E-15
  0.180029E-14  0.325518E-14  0.501744E-14  0.707620E-14
  0.981950E-14  0.140115E-13  0.202749E-13  0.283041E-13
  0.364427E-13  0.422076E-13  0.436454E-13  0.405639E-13
  0.346272E-13  0.282805E-13  0.234834E-13  0.211761E-13
  0.214940E-13  0.241014E-13  0.282285E-13  0.326095E-13
  0.357770E-13  0.368145E-13  0.360565E-13  0.350957E-13
  0.361117E-13  0.412939E-13  0.528195E-13  0.726481E-13
  0.101125E-12  0.135000E-12  0.166988E-12  0.188045E-12
  0.191139E-12  0.174329E-12  0.141720E-12  0.101878E-12
  0.642201E-13  0.352191E-13  0.166877E-13  0.679055E-14
  0.235979E-14  0.616548E-17  0.124103E-16  0.181402E-16
  0.154106E-16  0.350109E-17  0.344283E-16  0.291063E-15
  0.113326E-14  0.299479E-14  0.609674E-14  0.101897E-13
  0.147065E-13  0.194616E-13  0.254176E-13  0.346451E-13
  0.489773E-13  0.679527E-13  0.876480E-13  0.101883E-12
  0.105573E-12  0.979045E-13  0.827492E-13  0.660852E-13
  0.527576E-13  0.449799E-13  0.428135E-13  0.451674E-13
  0.502021E-13  0.554522E-13  0.586107E-13  0.590434E-13
  0.587202E-13  0.612558E-13  0.697656E-13  0.861298E-13
  0.112875E-12  0.154798E-12  0.216057E-12  0.293209E-12
  0.370776E-12  0.425333E-12  0.436667E-12  0.398433E-12
  0.321457E-12  0.228113E-12  0.141551E-12  0.763510E-13
  0.355906E-13  0.142570E-13  0.487996E-14  0.765541E-17
  0.131520E-16  0.137914E-16  0.457126E-17  0.259580E-16
  0.283764E-15  0.132075E-14  0.406654E-14  0.949831E-14
  0.178869E-13  0.282020E-13  0.385941E-13  0.481989E-13
  0.590417E-13  0.759778E-13  0.103608E-12  0.141596E-12
  0.181955E-12  0.211516E-12  0.219120E-12  0.202556E-12
  0.169698E-12  0.133124E-12  0.103076E-12  0.840374E-13
  0.757080E-13  0.754163E-13  0.794733E-13  0.838886E-13
  0.861618E-13  0.879232E-13  0.954318E-13  0.115581E-12
  0.150218E-12  0.195797E-12  0.251217E-12  0.325777E-12
  0.434529E-12  0.579835E-12  0.735374E-12  0.851068E-12
  0.879216E-12  0.802601E-12  0.644071E-12  0.452566E-12
  0.277304E-12  0.147500E-12  0.677768E-13  0.267658E-13
  0.903248E-14  0.785243E-17  0.102589E-16  0.593397E-17
  0.185139E-16  0.224184E-15  0.122839E-14  0.440413E-14
  0.118823E-13  0.256393E-13  0.457349E-13  0.690662E-13
  0.906313E-13  0.107671E-12  0.123884E-12  0.149348E-12
  0.194182E-12  0.259110E-12  0.330017E-12  0.382508E-12
  0.395440E-12  0.364095E-12  0.302581E-12  0.233945E-12
  0.176924E-12  0.139322E-12  0.119872E-12  0.113212E-12
  0.113177E-12  0.114863E-12  0.118192E-12  0.131867E-12
  0.171538E-12  0.248451E-12  0.356270E-12  0.472304E-12
  0.579496E-12  0.690632E-12  0.844124E-12  0.106410E-11
  0.131819E-11  0.151775E-11  0.156814E-11  0.142987E-11
  0.114225E-11  0.796303E-12  0.482879E-12  0.253806E-12
  0.115159E-12  0.448925E-13  0.149517E-13  0.684637E-17
  0.676356E-17  0.146953E-16  0.147096E-15  0.912741E-15
  0.377836E-14  0.117674E-13  0.292351E-13  0.597772E-13
  0.102562E-12  0.149972E-12  0.190464E-12  0.217065E-12
  0.235732E-12  0.265218E-12  0.325312E-12  0.419828E-12
  0.527015E-12  0.607206E-12  0.625399E-12  0.573184E-12
  0.472933E-12  0.361688E-12  0.269287E-12  0.207341E-12
  0.172579E-12  0.155907E-12  0.149019E-12  0.148895E-12
  0.164090E-12  0.219663E-12  0.349259E-12  0.568897E-12
  0.849537E-12  0.112139E-11  0.132335E-11  0.146152E-11
  0.161355E-11  0.185615E-11  0.217385E-11  0.243963E-11
  0.249511E-11  0.226298E-11  0.179794E-11  0.124442E-11
  0.747814E-12  0.388976E-12  0.174507E-12  0.672321E-13
  0.221236E-13  0.681895E-17  0.135392E-16  0.858954E-16
  0.552815E-15  0.258282E-14  0.921279E-14  0.262985E-13
  0.617932E-13  0.121583E-12  0.202682E-12  0.289211E-12
  0.358074E-12  0.394580E-12  0.407300E-12  0.427764E-12
  0.490634E-12  0.606106E-12  0.744957E-12  0.850255E-12
  0.871004E-12  0.794368E-12  0.651845E-12  0.495859E-12
  0.367825E-12  0.282198E-12  0.232197E-12  0.204632E-12
  0.191388E-12  0.197606E-12  0.251551E-12  0.409474E-12
  0.735883E-12  0.125166E-11  0.188220E-11  0.246519E-11
  0.284463E-11  0.299074E-11  0.303151E-11  0.314156E-11
  0.337401E-11  0.359354E-11  0.357933E-11  0.320264E-11
  0.252187E-11  0.173124E-11  0.103122E-11  0.531213E-12
  0.235858E-12  0.898960E-13  0.292617E-13  0.125461E-16
  0.496914E-16  0.286338E-15  0.143725E-14  0.576020E-14
  0.187228E-13  0.503510E-13  0.113620E-12  0.217185E-12
  0.354116E-12  0.495763E-12  0.601708E-12  0.645497E-12
  0.638332E-12  0.628293E-12  0.669939E-12  0.783852E-12
  0.935911E-12  0.105378E-11  0.107183E-11  0.973139E-12
  0.797187E-12  0.609368E-12  0.459538E-12  0.361887E-12
  0.304217E-12  0.270079E-12  0.256495E-12  0.286777E-12
  0.424449E-12  0.776510E-12  0.145532E-11  0.248845E-11
  0.372905E-11  0.486397E-11  0.556825E-11  0.571915E-11
  0.548668E-11  0.519202E-11  0.503852E-11  0.495696E-11
  0.470244E-11  0.409449E-11  0.317239E-11  0.215267E-11
  0.126927E-11  0.647356E-12  0.284550E-12  0.107376E-12
  0.346197E-13  0.303777E-16  0.137539E-15  0.681122E-15
  0.295344E-14  0.107189E-13  0.326155E-13  0.838486E-13
  0.183297E-12  0.342321E-12  0.548186E-12  0.755690E-12
  0.902660E-12  0.947884E-12  0.904945E-12  0.840433E-12
  0.831560E-12  0.912519E-12  0.104896E-11  0.115942E-11
  0.116926E-11  0.105922E-11  0.873455E-12  0.683727E-12
  0.541312E-12  0.454894E-12  0.404751E-12  0.373221E-12
  0.369321E-12  0.446367E-12  0.719806E-12  0.136772E-11
  0.256950E-11  0.436664E-11  0.652083E-11  0.851294E-11
  0.976484E-11  0.997656E-11  0.931756E-11  0.828449E-11
  0.732471E-11  0.655075E-11  0.577885E-11  0.480292E-11
  0.361674E-11  0.240888E-11  0.140074E-11  0.706060E-12
  0.307071E-12  0.114764E-12  0.367067E-13  0.661327E-16
  0.295096E-15  0.130697E-14  0.511862E-14  0.172282E-13
  0.496731E-13  0.122877E-12  0.261234E-12  0.477912E-12
  0.753196E-12  0.102440E-11  0.120727E-11  0.124596E-11
  0.115614E-11  0.102153E-11  0.940268E-12  0.960666E-12
  0.105336E-11  0.113706E-11  0.113695E-11  0.103432E-11
  0.873341E-12  0.722756E-12  0.625900E-12  0.579732E-12
  0.555089E-12  0.535641E-12  0.548899E-12  0.687522E-12
  0.113034E-11  0.214056E-11  0.398137E-11  0.672373E-11
  0.100406E-10  0.131805E-10  0.152462E-10  0.156672E-10
  0.145324E-10  0.124965E-10  0.103197E-10  0.842214E-11
  0.680088E-11  0.528211E-11  0.379918E-11  0.245467E-11
  0.139750E-11  0.693297E-12  0.297716E-12  0.110167E-12
  0.350143E-13  0.123880E-15  0.534447E-15  0.217334E-14
  0.783217E-14  0.246350E-13  0.674320E-13  0.160455E-12
  0.331471E-12  0.593616E-12  0.920460E-12  0.123540E-11
  0.143794E-11  0.146219E-11  0.132573E-11  0.112389E-11
  0.968507E-12  0.918527E-12  0.953352E-12  0.100137E-11
  0.996863E-12  0.924775E-12  0.824458E-12  0.752373E-12
  0.735148E-12  0.752899E-12  0.766048E-12  0.761696E-12
  0.789024E-12  0.981795E-12  0.158133E-11  0.293532E-11
  0.539802E-11  0.909200E-11  0.136356E-10  0.180708E-10
  0.211695E-10  0.220244E-10  0.205437E-10  0.174640E-10
  0.138591E-10  0.105413E-10  0.780361E-11  0.558355E-11
  0.376434E-11  0.232147E-11  0.127896E-11  0.619690E-12
  0.261582E-12  0.956834E-13  0.302673E-13  0.207559E-15
  0.873393E-15  0.331632E-14  0.110728E-13  0.324707E-13
  0.837956E-13  0.190273E-12  0.379246E-12  0.661219E-12
  0.100493E-11  0.132796E-11  0.152523E-11  0.152942E-11
  0.135982E-11  0.111443E-11  0.907151E-12  0.800742E-12
  0.784580E-12  0.803493E-12  0.807510E-12  0.787056E-12
  0.772881E-12  0.802702E-12  0.881294E-12  0.970206E-12
  0.102053E-11  0.102414E-11  0.105001E-11  0.126418E-11
  0.195302E-11  0.352760E-11  0.642294E-11  0.108335E-10
  0.163837E-10  0.219950E-10  0.261751E-10  0.276799E-10
  0.261554E-10  0.222984E-10  0.174077E-10  0.126805E-10
  0.876650E-11  0.578758E-11  0.361487E-11  0.209321E-11
  0.109910E-11  0.514051E-12  0.211624E-12  0.762209E-13
  0.240130E-13  0.324931E-15  0.135695E-14  0.488986E-14
  0.152155E-13  0.413864E-13  0.994151E-13  0.211978E-12
  0.401269E-12  0.672107E-12  0.991153E-12  0.128067E-11
  0.144551E-11  0.142723E-11  0.124635E-11  0.993181E-12
  0.771051E-12  0.638801E-12  0.594807E-12  0.602917E-12
  0.630963E-12  0.674400E-12  0.752974E-12  0.883410E-12
  0.104874E-11  0.119505E-11  0.126830E-11  0.126654E-11
  0.127244E-11  0.146636E-11  0.214771E-11  0.374974E-11
  0.675576E-11  0.114373E-10  0.174932E-10  0.238512E-10
  0.288976E-10  0.311384E-10  0.299350E-10  0.258183E-10
  0.201509E-10  0.143996E-10  0.954115E-11  0.591630E-11
  0.343653E-11  0.185398E-11  0.915593E-12  0.407730E-12
  0.161870E-12  0.569892E-13  0.178452E-13  0.490041E-15
  0.207071E-14  0.722543E-14  0.212468E-13  0.537910E-13
  0.119295E-12  0.234638E-12  0.412167E-12  0.647661E-12
  0.907806E-12  0.112897E-11  0.123909E-11  0.119766E-11
  0.102579E-11  0.797342E-12  0.595095E-12  0.468224E-12
  0.422296E-12  0.438979E-12  0.501487E-12  0.607613E-12
  0.764953E-12  0.970889E-12  0.119171E-11  0.136576E-11
  0.144136E-11  0.142529E-11  0.140666E-11  0.155881E-11
  0.215582E-11  0.360016E-11  0.637165E-11  0.107999E-10
  0.167062E-10  0.231554E-10  0.285941E-10  0.314386E-10
  0.308239E-10  0.270331E-10  0.213100E-10  0.151991E-10
  0.988474E-11  0.590306E-11  0.324925E-11  0.164618E-11
  0.762871E-12  0.320653E-12  0.121408E-12  0.413556E-13
  0.127800E-13  0.719225E-15  0.312188E-14  0.107687E-13
  0.305917E-13  0.734480E-13  0.151938E-12  0.275045E-12
  0.441315E-12  0.633695E-12  0.818686E-12  0.952077E-12
  0.993373E-12  0.926256E-12  0.772476E-12  0.584769E-12
  0.420514E-12  0.316748E-12  0.284506E-12  0.319743E-12
  0.416011E-12  0.569736E-12  0.776391E-12  0.101831E-11
  0.125305E-11  0.142147E-11  0.148363E-11  0.145894E-11
  0.143745E-11  0.156758E-11  0.206452E-11  0.324949E-11
  0.553980E-11  0.928067E-11  0.144273E-10  0.202731E-10
  0.254917E-10  0.285974E-10  0.286226E-10  0.255961E-10
  0.205018E-10  0.147585E-10  0.958685E-11  0.564131E-11
  0.301515E-11  0.146438E-11  0.645070E-12  0.256975E-12
  0.924668E-13  0.301969E-13  0.909190E-14  0.101883E-14
  0.457637E-14  0.158438E-13  0.444056E-13  0.103673E-12
  0.205374E-12  0.349985E-12  0.519354E-12  0.679297E-12
  0.792859E-12  0.835160E-12  0.800229E-12  0.699500E-12
  0.557443E-12  0.406235E-12  0.278149E-12  0.198078E-12
  0.180626E-12  0.231441E-12  0.349022E-12  0.525492E-12
  0.745669E-12  0.982530E-12  0.119357E-11  0.133203E-11
  0.137794E-11  0.136684E-11  0.138669E-11  0.155087E-11
  0.199620E-11  0.292914E-11  0.465612E-11  0.748679E-11
  0.114831E-10  0.161973E-10  0.206325E-10  0.235569E-10
  0.240480E-10  0.219451E-10  0.179159E-10  0.131024E-10
  0.859699E-11  0.506783E-11  0.268596E-11  0.127962E-11
  0.547397E-12  0.210069E-12  0.724368E-13  0.226339E-13
  0.654609E-14  0.136926E-14  0.637042E-14  0.223094E-13
  0.625144E-13  0.144638E-12  0.281301E-12  0.465196E-12
  0.659928E-12  0.810081E-12  0.869801E-12  0.828965E-12
  0.714381E-12  0.566982E-12  0.418397E-12  0.285498E-12
  0.179316E-12  0.113280E-12  0.102633E-12  0.157678E-12
  0.277585E-12  0.449249E-12  0.650042E-12  0.849877E-12
  0.101372E-11  0.111390E-11  0.115440E-11  0.118706E-11
  0.129537E-11  0.155543E-11  0.202377E-11  0.278486E-11
  0.401262E-11  0.594114E-11  0.869120E-11  0.120431E-10
  0.153477E-10  0.177069E-10  0.183636E-10  0.170719E-10
  0.142130E-10  0.105931E-10  0.706602E-11  0.421615E-11
  0.224814E-11  0.106964E-11  0.453256E-12  0.170818E-12
  0.573081E-13  0.172403E-13  0.474688E-14  0.171606E-14
  0.824994E-14  0.292994E-13  0.825850E-13  0.191217E-12
  0.370439E-12  0.606825E-12  0.846205E-12  0.100988E-11
  0.103805E-11  0.928606E-12  0.735890E-12  0.529906E-12
  0.354615E-12  0.219424E-12  0.119824E-12  0.582675E-13
  0.465806E-13  0.944968E-13  0.198933E-12  0.342645E-12
  0.500261E-12  0.645027E-12  0.754881E-12  0.823558E-12
  0.876892E-12  0.977816E-12  0.120112E-11  0.158831E-11
  0.212870E-11  0.280406E-11  0.366753E-11  0.486450E-11
  0.652800E-11  0.859855E-11  0.107175E-10  0.123126E-10
  0.128502E-10  0.120987E-10  0.102412E-10  0.777674E-11
  0.528710E-11  0.321097E-11  0.173744E-11  0.835089E-12
  0.355376E-12  0.133490E-12  0.441823E-13  0.129159E-13
  0.337831E-14  0.197912E-14  0.980000E-14  0.352947E-13
  0.100259E-12  0.233183E-12  0.452737E-12  0.741635E-12
  0.103124E-11  0.122190E-11  0.123833E-11  0.108012E-11
  0.821009E-12  0.555692E-12  0.343186E-12  0.193059E-12
  0.917842E-13  0.318614E-13  0.177488E-13  0.536652E-13
  0.132106E-12  0.233677E-12  0.335453E-12  0.419946E-12
  0.481557E-12  0.533769E-12  0.616952E-12  0.794845E-12
  0.112642E-11  0.162266E-11  0.222732E-11  0.285717E-11
  0.348396E-11  0.418076E-11  0.506429E-11  0.615863E-11
  0.729602E-11  0.815323E-11  0.840835E-11  0.790801E-11
  0.674015E-11  0.518432E-11  0.358445E-11  0.221815E-11
  0.122276E-11  0.597442E-12  0.257381E-12  0.972347E-13
  0.320377E-13  0.916594E-14  0.227853E-14  0.208182E-14
  0.105860E-13  0.386255E-13  0.110581E-12  0.258580E-12
  0.504116E-12  0.828573E-12  0.115528E-11  0.137146E-11
  0.139027E-11  0.120887E-11  0.909849E-12  0.602782E-12
  0.359313E-12  0.194285E-12  0.920739E-13  0.381695E-13
  0.275892E-13  0.550973E-13  0.106638E-12  0.162019E-12
  0.205002E-12  0.232139E-12  0.256267E-12  0.306937E-12
  0.429341E-12  0.675493E-12  0.107974E-11  0.162591E-11
  0.223523E-11  0.280301E-11  0.327162E-11  0.367780E-11
  0.411508E-11  0.462844E-11  0.513573E-11  0.545465E-11
  0.541412E-11  0.495562E-11  0.415611E-11  0.318014E-11
  0.220903E-11  0.138383E-11  0.775686E-12  0.385824E-12
  0.168847E-12  0.644331E-13  0.212231E-13  0.595831E-14
  0.140405E-14  0.198685E-14  0.103486E-13  0.382097E-13
  0.110187E-12  0.259010E-12  0.507187E-12  0.837230E-12
  0.117297E-11  0.140062E-11  0.143041E-11  0.125554E-11
  0.955709E-12  0.641029E-12  0.387998E-12  0.218549E-12
  0.121895E-12  0.819823E-13  0.852816E-13  0.114762E-12
  0.147303E-12  0.161433E-12  0.149557E-12  0.125221E-12
  0.120821E-12  0.178559E-12  0.339911E-12  0.634185E-12
  0.106315E-11  0.158565E-11  0.211928E-11  0.257515E-11
  0.291404E-11  0.317574E-11  0.343861E-11  0.372992E-11
  0.397098E-11  0.402009E-11  0.377909E-11  0.326498E-11
  0.259134E-11  0.189506E-11  0.127769E-11  0.790149E-12
  0.443489E-12  0.222846E-12  0.987929E-13  0.380607E-13
  0.125248E-13  0.343940E-14  0.759591E-15  0.171658E-14
  0.913584E-14  0.340954E-13  0.989719E-13  0.233785E-12
  0.459821E-12  0.762766E-12  0.107547E-11  0.129599E-11
  0.134195E-11  0.120288E-11  0.944593E-12  0.662274E-12
  0.426794E-12  0.266460E-12  0.181734E-12  0.162356E-12
  0.190015E-12  0.235350E-12  0.263241E-12  0.248097E-12
  0.189902E-12  0.119924E-12  0.908950E-13  0.156196E-12
  0.348854E-12  0.668874E-12  0.108052E-11  0.151903E-11
  0.191016E-11  0.220465E-11  0.241316E-11  0.260718E-11
  0.286196E-11  0.317161E-11  0.341553E-11  0.342698E-11
  0.311674E-11  0.254234E-11  0.186499E-11  0.124475E-11
  0.767286E-12  0.441326E-12  0.236453E-12  0.116255E-12
  0.512403E-13  0.197130E-13  0.642420E-14  0.170325E-14
  0.342192E-15  0.134338E-14  0.728377E-14  0.274442E-13
  0.801503E-13  0.190245E-12  0.376054E-12  0.627826E-12
  0.893685E-12  0.109332E-11  0.115991E-11  0.108013E-11
  0.897776E-12  0.680480E-12  0.483919E-12  0.340982E-12
  0.268700E-12  0.270521E-12  0.329135E-12  0.404063E-12
  0.445136E-12  0.417683E-12  0.325258E-12  0.215415E-12
  0.161902E-12  0.230204E-12  0.444566E-12  0.774119E-12
  0.114431E-11  0.146776E-11  0.168328E-11  0.179028E-11
  0.186101E-11  0.200993E-11  0.231645E-11  0.274177E-11
  0.311362E-11  0.321807E-11  0.294251E-11  0.235342E-11
  0.164501E-11  0.101238E-11  0.557237E-12  0.280626E-12
  0.132240E-12  0.587974E-13  0.242712E-13  0.895666E-14
  0.280494E-14  0.693379E-15  0.117902E-15  0.956059E-15
  0.525621E-14  0.199683E-13  0.586673E-13  0.140052E-12
  0.278814E-12  0.470416E-12  0.681013E-12  0.856311E-12
  0.948827E-12  0.942806E-12  0.855787E-12  0.720739E-12
  0.571900E-12  0.444941E-12  0.377137E-12  0.392803E-12
  0.482395E-12  0.597065E-12  0.669059E-12  0.648625E-12
  0.536991E-12  0.395092E-12  0.318255E-12  0.386583E-12
  0.618121E-12  0.952915E-12  0.127880E-11  0.148672E-11
  0.152886E-11  0.145173E-11  0.138518E-11  0.148182E-11
  0.182385E-11  0.234608E-11  0.283871E-11  0.305404E-11
  0.285670E-11  0.230509E-11  0.160130E-11  0.958982E-12
  0.497753E-12  0.226525E-12  0.922239E-13  0.344693E-13
  0.120298E-13  0.386096E-14  0.107054E-14  0.226879E-15
  0.282121E-16  0.624122E-15  0.345031E-14  0.131942E-13
  0.390294E-13  0.939700E-13  0.189436E-12  0.326036E-12
  0.487318E-12  0.644074E-12  0.767562E-12  0.839541E-12
  0.851184E-12  0.799599E-12  0.695322E-12  0.575182E-12
  0.498058E-12  0.514137E-12  0.628017E-12  0.786349E-12
  0.902701E-12  0.907106E-12  0.792742E-12  0.630761E-12
  0.538334E-12  0.612587E-12  0.868139E-12  0.121821E-11
  0.151484E-11  0.162865E-11  0.152435E-11  0.129001E-11
  0.110148E-11  0.113489E-11  0.146558E-11  0.200665E-11
  0.253320E-11  0.279534E-11  0.265770E-11  0.217024E-11
  0.152090E-11  0.914304E-12  0.471486E-12  0.208880E-12
  0.798910E-13  0.266489E-13  0.786054E-14  0.205994E-14
  0.463276E-15  0.804078E-16  0.110425E-16  0.379575E-15
  0.207856E-14  0.798308E-14  0.238370E-13  0.582604E-13
  0.120286E-12  0.214962E-12  0.340172E-12  0.487266E-12
  0.642817E-12  0.786227E-12  0.885869E-12  0.907019E-12
  0.837800E-12  0.714486E-12  0.615743E-12  0.618739E-12
  0.746298E-12  0.944753E-12  0.111037E-11  0.115116E-11
  0.104918E-11  0.883647E-12  0.793043E-12  0.891894E-12
  0.119178E-11  0.157945E-11  0.187241E-11  0.192315E-11
  0.171019E-11  0.135929E-11  0.108053E-11  0.105606E-11
  0.133935E-11  0.182013E-11  0.227610E-11  0.248707E-11
  0.234785E-11  0.191198E-11  0.134263E-11  0.812133E-12
  0.422443E-12  0.188637E-12  0.722408E-13  0.237468E-13
  0.672337E-14  0.164805E-14  0.352493E-15  0.702509E-16
  0.193160E-16  0.220460E-15  0.116562E-14  0.448146E-14
  0.135828E-13  0.341180E-13  0.735567E-13  0.140121E-12
  0.241754E-12  0.384252E-12  0.565107E-12  0.762300E-12
  0.927996E-12  0.100382E-11  0.959784E-12  0.829670E-12
  0.706362E-12  0.689648E-12  0.820430E-12  0.104824E-11
  0.125666E-11  0.133515E-11  0.125605E-11  0.110598E-11
  0.104249E-11  0.119438E-11  0.156712E-11  0.201937E-11
  0.233515E-11  0.235290E-11  0.206930E-11  0.164767E-11
  0.132398E-11  0.127081E-11  0.150347E-11  0.188047E-11
  0.218926E-11  0.226033E-11  0.204401E-11  0.161468E-11
  0.111272E-11  0.667548E-12  0.347678E-12  0.156758E-12
  0.610550E-13  0.205406E-13  0.599491E-14  0.153958E-14
  0.362336E-15  0.878446E-16  0.277406E-16  0.126375E-15
  0.620924E-15  0.237706E-14  0.738095E-14  0.194110E-13
  0.448029E-13  0.933249E-13  0.178462E-12  0.314295E-12
  0.505088E-12  0.729229E-12  0.931190E-12  0.103990E-11
  0.101388E-11  0.882560E-12  0.744169E-12  0.711188E-12
  0.837505E-12  0.107806E-11  0.131154E-11  0.141791E-11
  0.136557E-11  0.124848E-11  0.123812E-11  0.147058E-11
  0.194001E-11  0.247575E-11  0.283181E-11  0.283906E-11
  0.251819E-11  0.207113E-11  0.175370E-11  0.171728E-11
  0.192624E-11  0.219881E-11  0.233060E-11  0.220984E-11
  0.185590E-11  0.137874E-11  0.905826E-12  0.525554E-12
  0.268542E-12  0.120455E-12  0.473164E-13  0.162819E-13
  0.493936E-14  0.134647E-14  0.345302E-15  0.915768E-16
  0.287094E-16  0.737311E-16  0.321572E-15  0.121447E-14
  0.390625E-14  0.109756E-13  0.276708E-13  0.636442E-13
  0.133919E-12  0.255575E-12  0.436258E-12  0.656916E-12
  0.863038E-12  0.982467E-12  0.969992E-12  0.849290E-12
  0.713711E-12  0.675157E-12  0.791928E-12  0.102530E-11
  0.125880E-11  0.137541E-11  0.134734E-11  0.127463E-11
  0.133404E-11  0.165923E-11  0.222854E-11  0.284539E-11
  0.324254E-11  0.325207E-11  0.292237E-11  0.249072E-11
  0.222528E-11  0.224906E-11  0.247109E-11  0.266645E-11
  0.263507E-11  0.231866E-11  0.180493E-11  0.124506E-11
  0.763831E-12  0.417918E-12  0.204116E-12  0.889293E-13
  0.345242E-13  0.119539E-13  0.371605E-14  0.105626E-14
  0.285407E-15  0.784426E-16  0.238487E-16  0.442688E-16
  0.164689E-15  0.603593E-15  0.202580E-14  0.616305E-14
  0.170660E-13  0.429644E-13  0.974692E-13  0.196789E-12
  0.349424E-12  0.540538E-12  0.723548E-12  0.834896E-12
  0.832677E-12  0.734294E-12  0.619355E-12  0.586581E-12
  0.689691E-12  0.896536E-12  0.110477E-11  0.121252E-11
  0.120218E-11  0.117582E-11  0.130403E-11  0.170793E-11
  0.234955E-11  0.301703E-11  0.343733E-11  0.345369E-11
  0.313999E-11  0.275681E-11  0.257248E-11  0.267881E-11
  0.293698E-11  0.308801E-11  0.293640E-11  0.246635E-11
  0.181958E-11  0.118173E-11  0.679292E-12  0.347888E-12
  0.159745E-12  0.661147E-13  0.247624E-13  0.842693E-14
  0.262425E-14  0.759110E-15  0.209924E-15  0.581161E-16
  0.170264E-16  0.269500E-16  0.834940E-16  0.288582E-15
  0.100772E-14  0.332944E-14  0.100724E-13  0.273598E-13
  0.657698E-13  0.138398E-12  0.252949E-12  0.399376E-12
  0.542719E-12  0.633720E-12  0.638476E-12  0.568492E-12
  0.484524E-12  0.463899E-12  0.549430E-12  0.715507E-12
  0.880395E-12  0.965311E-12  0.965136E-12  0.977265E-12
  0.115428E-11  0.159699E-11  0.225572E-11  0.292049E-11
  0.333248E-11  0.335511E-11  0.307863E-11  0.276601E-11
  0.266918E-11  0.285009E-11  0.314083E-11  0.326985E-11
  0.305289E-11  0.250287E-11  0.179155E-11  0.112092E-11
  0.615857E-12  0.299211E-12  0.129694E-12  0.506675E-13
  0.180309E-13  0.590579E-14  0.179915E-14  0.516531E-15
  0.142568E-15  0.389767E-16  0.109494E-16  0.162336E-16
  0.414579E-16  0.128433E-15  0.457798E-15  0.164044E-14
  0.540399E-14  0.157288E-13  0.397878E-13  0.868378E-13
  0.162940E-12  0.262326E-12  0.361925E-12  0.427987E-12
  0.436285E-12  0.393498E-12  0.340968E-12  0.332444E-12
  0.397620E-12  0.517241E-12  0.632339E-12  0.689142E-12
  0.692962E-12  0.729103E-12  0.922927E-12  0.135139E-11
  0.196127E-11  0.256352E-11  0.293293E-11  0.295915E-11
  0.273528E-11  0.250221E-11  0.247849E-11  0.270097E-11
  0.299750E-11  0.311165E-11  0.288108E-11  0.233394E-11
  0.164475E-11  0.100842E-11  0.539646E-12  0.253509E-12
  0.105432E-12  0.392718E-13  0.132932E-13  0.415612E-14
  0.121960E-14  0.340886E-15  0.921286E-16  0.245312E-16
  0.658655E-17  0.957316E-17  0.202671E-16  0.514402E-16
  0.177033E-15  0.688960E-15  0.249954E-14  0.785657E-14
  0.210202E-13  0.477706E-13  0.923376E-13  0.152049E-12
  0.213573E-12  0.256446E-12  0.265273E-12  0.243320E-12
  0.215543E-12  0.215030E-12  0.259715E-12  0.336189E-12
  0.406246E-12  0.437801E-12  0.441911E-12  0.486303E-12
  0.664989E-12  0.103180E-11  0.153851E-11  0.203165E-11
  0.233277E-11  0.235954E-11  0.219485E-11  0.203749E-11
  0.206062E-11  0.228265E-11  0.255021E-11  0.264642E-11
  0.244037E-11  0.196446E-11  0.137272E-11  0.832279E-12
  0.438782E-12  0.202040E-12  0.818403E-13  0.294853E-13
  0.959579E-14  0.287647E-14  0.810936E-15  0.218979E-15
  0.574447E-16  0.148239E-16  0.381483E-17  0.561531E-17
  0.103943E-16  0.193354E-16  0.536521E-16  0.223935E-15
  0.932077E-15  0.326618E-14  0.943437E-14  0.226317E-13
  0.454975E-13  0.771714E-13  0.110969E-12  0.135923E-12
  0.143305E-12  0.134326E-12  0.122258E-12  0.125072E-12
  0.152166E-12  0.195035E-12  0.231586E-12  0.245338E-12
  0.248298E-12  0.288829E-12  0.430954E-12  0.709252E-12
  0.108613E-11  0.144982E-11  0.167228E-11  0.169697E-11
  0.158823E-11  0.149316E-11  0.153601E-11  0.172369E-11
  0.193604E-11  0.200922E-11  0.184790E-11  0.148133E-11
  0.102942E-11  0.619651E-12  0.323562E-12  0.147068E-12
  0.585412E-13  0.206117E-13  0.651755E-14  0.188981E-14
  0.514743E-15  0.134652E-15  0.343630E-16  0.863949E-17
  0.215549E-17  0.338954E-17  0.626159E-17  0.925313E-17
  0.137575E-16  0.471576E-16  0.247411E-15  0.105339E-14
  0.345257E-14  0.900393E-14  0.191822E-13  0.339448E-13
  0.504350E-13  0.634810E-13  0.686512E-13  0.661562E-13
  0.621459E-13  0.651790E-13  0.794870E-13  0.100231E-12
  0.116092E-12  0.119985E-12  0.121742E-12  0.152258E-12
  0.250979E-12  0.438356E-12  0.689006E-12  0.930161E-12
  0.107893E-11  0.109962E-11  0.103601E-11  0.985411E-12
  0.102815E-11  0.116523E-11  0.131337E-11  0.136218E-11
  0.124950E-11  0.997845E-12  0.690123E-12  0.412916E-12
  0.213937E-12  0.962446E-13  0.377905E-13  0.130691E-13
  0.404019E-14  0.114095E-14  0.302354E-15  0.771789E-16
  0.193290E-16  0.479263E-17  0.117957E-17  0.214591E-17
  0.451684E-17  0.745542E-17  0.847062E-17  0.723316E-17
  0.330854E-16  0.223630E-15  0.950156E-15  0.287808E-14
  0.674299E-14  0.127384E-13  0.198628E-13  0.259871E-13
  0.290953E-13  0.290448E-13  0.282743E-13  0.303211E-13
  0.367937E-13  0.452544E-13  0.506197E-13  0.504998E-13
  0.514865E-13  0.711661E-13  0.131458E-12  0.243542E-12
  0.392547E-12  0.536210E-12  0.626234E-12  0.641957E-12
  0.609516E-12  0.586365E-12  0.619097E-12  0.706502E-12
  0.797333E-12  0.825319E-12  0.754381E-12  0.599791E-12
  0.412646E-12  0.245325E-12  0.126096E-12  0.561506E-13
  0.217582E-13  0.739860E-14  0.224021E-14  0.617977E-15
  0.160073E-15  0.401583E-16  0.997424E-17  0.247391E-17
  0.611535E-18  0.139234E-17  0.344877E-17  0.706967E-17
  0.110470E-16  0.109714E-16  0.432698E-17  0.169596E-16
  0.158780E-15  0.673107E-15  0.188495E-14  0.397512E-14