<?xml version="1.0"?>
 <VTKFile type="ImageData" version="0.1" byte_order="LittleEndian">
   <ImageData WholeExtent="           0          49           0          49           0          49 " Origin="  -8.0000000000000000       -7.0000000000000000       -6.0000000000000000      " Spacing="  0.32653061224489793       0.28571428571428570       0.24489795918367346      ">
   <Piece Extent="           0          49           0          49           0          49 ">
   <PointData Scalars="scalars">
   <DataArray Name="scalars" type="Float64" NumberOfComponents="1" Format="ascii">
 -0.496539E-10
  0.995969E-10  0.309724E-09  0.811679E-09  0.178478E-08
  0.343450E-08  0.593432E-08  0.935309E-08  0.135928E-07
  0.183674E-07  0.232367E-07  0.276824E-07  0.311892E-07
  0.333113E-07  0.337323E-07  0.323389E-07  0.292982E-07
  0.250922E-07  0.204735E-07  0.163614E-07  0.136906E-07
  0.130530E-07  0.142257E-07  0.164580E-07  0.191053E-07
  0.217863E-07  0.243875E-07  0.271878E-07  0.311903E-07
  0.386641E-07  0.533900E-07  0.799510E-07  0.122721E-06
  0.185005E-06  0.267757E-06  0.368075E-06  0.478316E-06
  0.586541E-06  0.678472E-06  0.740493E-06  0.762757E-06
  0.741506E-06  0.679951E-06  0.587526E-06  0.477696E-06
  0.364878E-06  0.261400E-06  0.175374E-06  0.110038E-06
  0.644986E-07 -0.102728E-09 -0.135267E-09  0.357190E-09
  0.102221E-08  0.239012E-08  0.477452E-08  0.844903E-08
  0.135333E-07  0.198990E-07  0.271438E-07  0.346541E-07
  0.417267E-07  0.476806E-07  0.519159E-07  0.539480E-07
  0.534865E-07  0.505746E-07  0.457130E-07  0.398684E-07
  0.343258E-07  0.303718E-07  0.287960E-07  0.294957E-07
  0.317292E-07  0.347256E-07  0.379952E-07  0.414222E-07
  0.454747E-07  0.517802E-07  0.640792E-07  0.886172E-07
  0.132857E-06  0.203750E-06  0.306302E-06  0.441491E-06
  0.603936E-06  0.780754E-06  0.952670E-06  0.109742E-05
  0.119440E-05  0.122909E-05  0.119605E-05  0.109999E-05
  0.954783E-06  0.780689E-06  0.600048E-06  0.432638E-06
  0.292069E-06  0.184327E-06  0.108616E-06 -0.179830E-09
 -0.213322E-09  0.408305E-09  0.126722E-08  0.317501E-08
  0.659902E-08  0.119661E-07  0.194790E-07  0.289723E-07
  0.398795E-07  0.513450E-07  0.624277E-07  0.722667E-07
  0.801147E-07  0.852934E-07  0.872358E-07  0.857016E-07
  0.810498E-07  0.743547E-07  0.672303E-07  0.613617E-07
  0.578878E-07  0.570042E-07  0.581569E-07  0.606070E-07
  0.638398E-07  0.677685E-07  0.730997E-07  0.823018E-07
  0.101217E-06  0.139681E-06  0.209276E-06  0.320425E-06
  0.480139E-06  0.688805E-06  0.936832E-06  0.120348E-05
  0.145935E-05  0.167206E-05  0.181307E-05  0.186315E-05
  0.181538E-05  0.167594E-05  0.146321E-05  0.120497E-05
  0.933325E-06  0.678138E-06  0.461158E-06  0.292987E-06
  0.173669E-06 -0.252897E-09 -0.287689E-09  0.446777E-09
  0.160577E-08  0.431454E-08  0.927212E-08  0.171398E-07
  0.282475E-07  0.423739E-07  0.587017E-07  0.760128E-07
  0.930376E-07  0.108727E-06  0.122250E-06  0.132772E-06
  0.139362E-06  0.141267E-06  0.138408E-06  0.131710E-06
  0.122979E-06  0.114326E-06  0.107432E-06  0.103070E-06
  0.101180E-06  0.101336E-06  0.103170E-06  0.106673E-06
  0.112800E-06  0.125031E-06  0.152012E-06  0.208570E-06
  0.311886E-06  0.476721E-06  0.712027E-06  0.101632E-05
  0.137320E-05  0.175066E-05  0.210623E-05  0.239624E-05
  0.258524E-05  0.265145E-05  0.258778E-05  0.240119E-05
  0.211256E-05  0.175572E-05  0.137304E-05  0.100696E-05
  0.690648E-06  0.442131E-06  0.263805E-06 -0.279187E-09
 -0.240991E-09  0.450726E-09  0.223672E-08  0.622350E-08
  0.135257E-07  0.251554E-07  0.416196E-07  0.625895E-07
  0.868394E-07  0.112575E-06  0.138033E-06  0.161970E-06
  0.183624E-06  0.202181E-06  0.216337E-06  0.224548E-06
  0.225846E-06  0.220560E-06  0.210401E-06  0.197878E-06
  0.185438E-06  0.174810E-06  0.166881E-06  0.161953E-06
  0.160061E-06  0.161322E-06  0.166849E-06  0.181162E-06
  0.216388E-06  0.294021E-06  0.438579E-06  0.669790E-06
  0.997860E-06  0.141723E-05  0.190094E-05  0.240151E-05
  0.286056E-05  0.322392E-05  0.345388E-05  0.353225E-05
  0.345525E-05  0.322873E-05  0.287024E-05  0.241412E-05
  0.191085E-05  0.141721E-05  0.981753E-06  0.633889E-06
  0.380961E-06 -0.426082E-09  0.375743E-09  0.104424E-08
  0.378897E-08  0.979817E-08  0.207071E-07  0.379915E-07
  0.623617E-07  0.932626E-07  0.128785E-06  0.166200E-06
  0.202968E-06  0.237624E-06  0.269765E-06  0.299010E-06
  0.323866E-06  0.341744E-06  0.350194E-06  0.348286E-06
  0.337165E-06  0.319608E-06  0.299033E-06  0.278597E-06
  0.260706E-06  0.246909E-06  0.237947E-06  0.234056E-06
  0.236234E-06  0.249775E-06  0.290770E-06  0.389414E-06
  0.579681E-06  0.886464E-06  0.131962E-05  0.186621E-05
  0.248382E-05  0.310429E-05  0.365086E-05  0.406209E-05
  0.430808E-05  0.438691E-05  0.430520E-05  0.406388E-05
  0.366521E-05  0.313205E-05  0.251711E-05  0.189220E-05
  0.132590E-05  0.864262E-06  0.523468E-06  0.125097E-08
  0.168109E-08  0.316430E-08  0.744767E-08  0.166151E-07
  0.329889E-07  0.586065E-07  0.943495E-07  0.139203E-06
  0.190134E-06  0.242929E-06  0.293827E-06  0.341071E-06
  0.385072E-06  0.426642E-06  0.464636E-06  0.495322E-06
  0.514095E-06  0.517903E-06  0.506649E-06  0.483084E-06
  0.451755E-06  0.417721E-06  0.385533E-06  0.358536E-06
  0.338435E-06  0.325434E-06  0.319862E-06  0.327007E-06
  0.366924E-06  0.481110E-06  0.716009E-06  0.110126E-05
  0.164360E-05  0.231840E-05  0.306193E-05  0.377928E-05
  0.437250E-05  0.477834E-05  0.499117E-05  0.504759E-05
  0.497806E-05  0.477162E-05  0.439378E-05  0.383559E-05
  0.314203E-05  0.240002E-05  0.170358E-05  0.112192E-05
  0.685101E-06  0.309910E-08  0.448258E-08  0.760526E-08
  0.147119E-07  0.288531E-07  0.533258E-07  0.908405E-07
  0.142334E-06  0.205947E-06  0.276885E-06  0.348690E-06
  0.415765E-06  0.475927E-06  0.531006E-06  0.584198E-06
  0.635768E-06  0.681082E-06  0.712757E-06  0.724617E-06
  0.714443E-06  0.684507E-06  0.640490E-06  0.589742E-06
  0.539516E-06  0.495395E-06  0.460139E-06  0.433532E-06
  0.414294E-06  0.406165E-06  0.432065E-06  0.548271E-06
  0.819131E-06  0.127771E-05  0.192332E-05  0.271485E-05
  0.356125E-05  0.433405E-05  0.490988E-05  0.522855E-05
  0.533038E-05  0.532645E-05  0.529587E-05  0.520352E-05
  0.494172E-05  0.444015E-05  0.372444E-05  0.289776E-05
  0.208602E-05  0.138862E-05  0.855008E-06  0.639360E-08
  0.949327E-08  0.154699E-07  0.272701E-07  0.489938E-07
  0.850567E-07  0.138867E-06  0.211170E-06  0.298699E-06
  0.394072E-06  0.487665E-06  0.571299E-06  0.642174E-06
  0.704246E-06  0.764681E-06  0.826863E-06  0.886036E-06
  0.931635E-06  0.953340E-06  0.945816E-06  0.910214E-06
  0.853170E-06  0.784507E-06  0.714499E-06  0.651157E-06
  0.598094E-06  0.553981E-06  0.514643E-06  0.479774E-06
  0.471619E-06  0.565293E-06  0.855174E-06  0.137484E-05
 -0.210901E-05 -0.299595E-05 -0.391282E-05 -0.469124E-05
  0.517501E-05  0.530511E-05  0.518776E-05  0.506379E-05
  0.511032E-05  0.524386E-05  0.522119E-05  0.487540E-05
  0.420678E-05  0.333987E-05  0.243950E-05  0.164132E-05
  0.101872E-05  0.115912E-07  0.174547E-07  0.278965E-07
  0.467815E-07  0.793643E-07  0.131183E-06  0.206182E-06
  0.304482E-06  0.420668E-06  0.543820E-06  0.660179E-06
  0.758251E-06  0.834413E-06  0.895442E-06  0.954278E-06
  0.101972E-05  0.108837E-05  0.114648E-05  0.117873E-05
  0.117565E-05  0.113655E-05  0.106860E-05  0.983984E-06
  0.895970E-06  0.814784E-06  0.744312E-06  0.681191E-06
  0.617009E-06  0.544392E-06  0.476794E-06  0.507869E-06
  0.793122E-06 -0.135991E-05 -0.216403E-05 -0.312165E-05
 -0.407842E-05 -0.482288E-05 -0.515574E-05 -0.500146E-05
  0.452867E-05  0.418476E-05  0.436231E-05  0.486930E-05
  0.521425E-05  0.511208E-05  0.455089E-05  0.368761E-05
  0.273111E-05  0.185565E-05  0.116014E-05  0.190375E-07
  0.289309E-07  0.457437E-07  0.744434E-07  0.121493E-06
  0.193408E-06  0.294292E-06  0.422997E-06  0.571103E-06
  0.723216E-06  0.860628E-06  0.968005E-06  0.104080E-05
  0.108918E-05  0.113348E-05  0.119050E-05  0.126036E-05
  0.132673E-05  0.136874E-05  0.137197E-05  0.133312E-05
  0.125936E-05  0.116478E-05  0.106523E-05  0.972455E-06
  0.889675E-06  0.810550E-06  0.721809E-06  0.607461E-06
  0.460694E-06  0.365254E-06 -0.619313E-06 -0.122933E-05
 -0.208710E-05 -0.309433E-05 -0.407439E-05 -0.477803E-05
 -0.495668E-05 -0.448479E-05 -0.352024E-05  0.275552E-05
  0.315443E-05  0.421598E-05  0.500528E-05  0.517626E-05
  0.474652E-05  0.391553E-05  0.293389E-05  0.200965E-05
  0.126400E-05  0.288392E-07  0.441098E-07  0.692731E-07
  0.110506E-06  0.175414E-06  0.271166E-06  0.401438E-06
  0.563024E-06  0.743646E-06  0.922725E-06  0.107620E-05
  0.118482E-05  0.124329E-05  0.126546E-05  0.128010E-05
  0.131425E-05  0.137411E-05  0.144207E-05  0.149161E-05
  0.150287E-05  0.146939E-05  0.139772E-05  0.130326E-05
  0.120359E-05  0.111092E-05  0.102653E-05  0.940451E-06
  0.835513E-06  0.690493E-06  0.480437E-06  0.197811E-06
 -0.378736E-06 -0.104397E-05 -0.193659E-05 -0.297491E-05
 -0.397911E-05 -0.467982E-05 -0.479204E-05 -0.413093E-05
 -0.273519E-05 -0.116487E-05  0.195339E-05  0.363705E-05
  0.477020E-05  0.513573E-05  0.480595E-05  0.401206E-05
  0.302975E-05  0.208696E-05  0.131842E-05  0.407868E-07
  0.626763E-07  0.979412E-07  0.153945E-06  0.239202E-06
  0.361017E-06  0.521890E-06  0.715742E-06  0.925788E-06
  0.112601E-05  0.128724E-05  0.138693E-05  0.141955E-05
  0.140276E-05  0.137366E-05  0.137070E-05  0.140864E-05
  0.147040E-05  0.152434E-05  0.154510E-05  0.152283E-05
  0.146309E-05  0.138184E-05  0.129742E-05  0.122101E-05
  0.115051E-05  0.107213E-05  0.967297E-06  0.817888E-06
  0.608152E-06  0.347663E-06 -0.379507E-06 -0.971234E-06
 -0.183655E-05 -0.287165E-05 -0.390221E-05 -0.466172E-05
 -0.486144E-05 -0.430989E-05 -0.305030E-05 -0.165378E-05
  0.206547E-05  0.357897E-05  0.468030E-05  0.505486E-05
  0.474688E-05  0.397522E-05  0.301033E-05  0.207897E-05
  0.131681E-05  0.543724E-07  0.838420E-07  0.130441E-06
  0.202527E-06  0.309082E-06  0.456861E-06  0.646369E-06
  0.867974E-06  0.110014E-05  0.131185E-05  0.146987E-05
  0.154973E-05  0.154664E-05  0.148195E-05  0.139986E-05
  0.134958E-05  0.135598E-05  0.140468E-05  0.145993E-05
  0.149136E-05  0.148600E-05  0.144830E-05  0.139429E-05
  0.134185E-05  0.129942E-05  0.126006E-05  0.120623E-05
  0.112061E-05  0.994894E-06  0.837963E-06  0.702281E-06
 -0.752240E-06 -0.116244E-05 -0.190417E-05 -0.287487E-05
 -0.390907E-05 -0.475961E-05 -0.515780E-05 -0.493454E-05
 -0.417044E-05 -0.336225E-05 -0.332868E-05  0.406335E-05
  0.475631E-05  0.494566E-05  0.457558E-05  0.380795E-05
  0.287675E-05  0.198595E-05  0.125910E-05  0.689177E-07
  0.106568E-06  0.165069E-06  0.253380E-06  0.380312E-06
  0.551242E-06  0.763908E-06  0.100474E-05  0.124780E-05
  0.145825E-05  0.160072E-05  0.165082E-05  0.160584E-05
  0.149054E-05  0.135401E-05  0.125350E-05  0.122400E-05
  0.125575E-05  0.131036E-05  0.135336E-05  0.136941E-05
  0.136217E-05  0.134734E-05  0.134111E-05  0.134736E-05
  0.135328E-05  0.133796E-05  0.128640E-05  0.120054E-05
  0.110790E-05  0.106947E-05 -0.117547E-05 -0.151062E-05
 -0.211690E-05 -0.297168E-05 -0.395942E-05 -0.487125E-05
 -0.546479E-05 -0.557464E-05 -0.523347E-05 -0.473581E-05
 -0.450161E-05  0.464807E-05  0.484867E-05  0.476130E-05
  0.428494E-05  0.351764E-05  0.263967E-05  0.181715E-05
  0.115181E-05  0.837666E-07  0.129918E-06  0.200343E-06
  0.304024E-06  0.448762E-06  0.637648E-06  0.864998E-06
  0.111331E-05  0.135322E-05  0.154806E-05  0.166287E-05
  0.167576E-05  0.158755E-05  0.142600E-05  0.124228E-05
  0.109748E-05  0.103463E-05  0.104994E-05  0.110385E-05
  0.115896E-05  0.119875E-05  0.122663E-05  0.125760E-05
  0.130488E-05  0.136672E-05  0.142462E-05  0.145502E-05
  0.144453E-05  0.140114E-05  0.136063E-05  0.138264E-05
  0.152669E-05 -0.183238E-05 -0.233376E-05 -0.305190E-05
 -0.393713E-05 -0.483768E-05 -0.554355E-05 -0.588298E-05
 -0.582200E-05 -0.550535E-05 -0.517395E-05  0.496171E-05
  0.477659E-05  0.443915E-05  0.386869E-05  0.311998E-05
  0.231936E-05  0.158985E-05  0.100705E-05  0.984340E-07
  0.153350E-06  0.235585E-06  0.353420E-06  0.512669E-06
  0.713151E-06  0.945202E-06  0.118774E-05  0.140953E-05
  0.157457E-05  0.165129E-05  0.162280E-05  0.149471E-05
  0.129720E-05  0.108068E-05  0.905200E-06  0.818155E-06
  0.821964E-06  0.876989E-06  0.944131E-06  0.100691E-05
  0.106904E-05  0.114438E-05  0.124247E-05  0.135649E-05
  0.146416E-05  0.154040E-05  0.157176E-05  0.156660E-05
  0.155996E-05  0.160662E-05  0.175448E-05  0.202392E-05
 -0.242986E-05 -0.300105E-05 -0.373640E-05 -0.454616E-05
 -0.526159E-05 -0.571224E-05 -0.581446E-05 -0.561551E-05
 -0.525585E-05 -0.485951E-05  0.444434E-05  0.395030E-05
  0.333876E-05  0.264286E-05  0.194463E-05  0.132700E-05
  0.840459E-06  0.112606E-06  0.176748E-06  0.271064E-06
  0.402421E-06  0.573618E-06  0.780136E-06  0.100775E-05
  0.123224E-05  0.142220E-05  0.154514E-05  0.157588E-05
  0.150488E-05  0.134342E-05  0.112334E-05  0.891773E-06
  0.703304E-06  0.605376E-06  0.605646E-06  0.664531E-06
  0.742184E-06  0.823446E-06  0.912659E-06  0.102220E-05
  0.115857E-05  0.131240E-05  0.146068E-05  0.157820E-05
  0.164994E-05  0.167972E-05  0.169446E-05  0.173951E-05
  0.185716E-05  0.206366E-05  0.236166E-05 -0.277266E-05
 -0.332237E-05 -0.397669E-05 -0.461486E-05 -0.508076E-05
 -0.526369E-05 -0.515006E-05 -0.481586E-05 -0.436521E-05
  0.386273E-05  0.331908E-05  0.273211E-05  0.212568E-05
  0.154939E-05  0.105374E-05  0.668500E-06  0.125981E-06
  0.200084E-06  0.307444E-06  0.453019E-06  0.635719E-06
  0.845640E-06  0.106321E-05  0.126118E-05  0.140934E-05
  0.148117E-05  0.146069E-05  0.134779E-05  0.116007E-05
  0.930191E-06  0.700052E-06  0.515568E-06  0.420439E-06
  0.425567E-06  0.490016E-06  0.574276E-06  0.665838E-06
  0.769766E-06  0.897189E-06  0.105341E-05  0.122996E-05
  0.140627E-05  0.155870E-05  0.167021E-05  0.173724E-05
  0.177371E-05  0.180993E-05  0.188004E-05  0.200147E-05
  0.217423E-05  0.241075E-05 -0.274859E-05 -0.320122E-05
 -0.370068E-05 -0.411625E-05 -0.432742E-05 -0.428318E-05
 -0.401424E-05 -0.359992E-05  0.311737E-05  0.261173E-05
  0.210379E-05  0.161316E-05  0.116734E-05  0.793287E-06
  0.505778E-06  0.138083E-06  0.222942E-06  0.344797E-06
  0.506571E-06  0.702846E-06  0.917570E-06  0.112497E-05
  0.129420E-05  0.139659E-05  0.141296E-05  0.133860E-05
  0.118461E-05  0.975607E-06  0.744587E-06  0.527034E-06
  0.358431E-06  0.276328E-06  0.292017E-06  0.360498E-06
  0.444932E-06  0.536691E-06  0.641353E-06  0.769268E-06
  0.926593E-06  0.110867E-05  0.130019E-05  0.148098E-05
  0.163274E-05  0.174416E-05  0.181464E-05  0.185642E-05
  0.189013E-05  0.193106E-05  0.198018E-05  0.204154E-05
  0.215196E-05  0.236545E-05 -0.267861E-05 -0.299895E-05
 -0.320568E-05 -0.322187E-05 -0.304252E-05 -0.271938E-05
  0.232314E-05  0.191010E-05  0.151213E-05  0.114640E-05
  0.826427E-06  0.563578E-06  0.363039E-06  0.148233E-06
  0.244277E-06  0.381864E-06  0.562141E-06  0.775476E-06
  0.999497E-06  0.120166E-05  0.134671E-05  0.140663E-05
  0.136925E-05  0.124159E-05  0.104700E-05  0.818084E-06
  0.588530E-06  0.387287E-06  0.238926E-06  0.173881E-06
  0.200471E-06  0.267742E-06  0.345284E-06  0.428472E-06
  0.522694E-06  0.637701E-06  0.781703E-06  0.955641E-06
  0.115133E-05  0.135374E-05  0.154471E-05  0.170644E-05
  0.182545E-05  0.189726E-05  0.192790E-05  0.192663E-05
  0.189405E-05  0.182422E-05  0.173229E-05  0.168167E-05
  0.174792E-05 -0.191924E-05 -0.208918E-05 -0.215390E-05
 -0.207217E-05 -0.186459E-05  0.158461E-05  0.128605E-05
  0.100421E-05  0.755216E-06  0.544868E-06  0.375332E-06
  0.246305E-06  0.155728E-06  0.262599E-06  0.416112E-06
  0.616127E-06  0.849370E-06  0.108763E-05  0.129171E-05
  0.142134E-05  0.144793E-05  0.136458E-05  0.118857E-05
  0.955041E-06  0.705139E-06  0.474425E-06  0.286471E-06
  0.155361E-06  0.103988E-06 -0.136302E-06 -0.196008E-06
 -0.261606E-06  0.331426E-06  0.410009E-06  0.506270E-06
  0.630274E-06  0.788508E-06  0.980198E-06  0.119616E-05
  0.141963E-05  0.162857E-05  0.180019E-05  0.191788E-05
  0.197679E-05  0.198145E-05  0.193386E-05  0.182405E-05
  0.164066E-05  0.140161E-05  0.118256E-05  0.109143E-05
  0.114130E-05 -0.121799E-05 -0.122271E-05 -0.113152E-05
 -0.971295E-06  0.784986E-06  0.607006E-06  0.454242E-06
  0.329984E-06  0.231964E-06  0.157119E-06  0.160117E-06
  0.276434E-06  0.444443E-06  0.663250E-06  0.916770E-06
  0.117194E-05  0.138367E-05  0.150684E-05  0.151128E-05
  0.139333E-05  0.117802E-05  0.910190E-06  0.638949E-06
  0.402799E-06  0.221945E-06  0.100913E-06  0.522993E-07
 -0.833211E-07 -0.130782E-06 -0.182315E-06  0.239049E-06
  0.304946E-06  0.387353E-06  0.495726E-06  0.638861E-06
  0.821176E-06  0.103905E-05  0.127881E-05  0.151764E-05
  0.172842E-05  0.188814E-05  0.198634E-05  0.202623E-05
  0.201378E-05  0.194224E-05  0.179049E-05  0.154270E-05
  0.121461E-05  0.868621E-06  0.612600E-06  0.536069E-06
 -0.561587E-06 -0.563600E-06 -0.509919E-06 -0.420800E-06
  0.325586E-06  0.243378E-06  0.179456E-06  0.130909E-06
  0.935628E-07  0.161376E-06  0.284738E-06  0.464038E-06
  0.698072E-06  0.968879E-06  0.123985E-05  0.146140E-05
  0.158428E-05  0.157644E-05  0.143582E-05  0.119243E-05
  0.898084E-06  0.608201E-06  0.364538E-06  0.186258E-06
  0.715750E-07  0.723417E-08 -0.330140E-07 -0.631574E-07
 -0.100345E-06  0.150994E-06  0.218334E-06  0.305123E-06
  0.414449E-06  0.550826E-06  0.719495E-06  0.922124E-06
  0.115139E-05  0.138888E-05  0.160899E-05  0.178821E-05
  0.191564E-05  0.199647E-05  0.204130E-05  0.204637E-05
  0.198522E-05  0.182509E-05  0.155442E-05  0.119874E-05
  0.815984E-06  0.478135E-06  0.256807E-06  0.194600E-06
 -0.198037E-06 -0.182106E-06 -0.147289E-06  0.111229E-06
  0.840533E-07  0.655848E-07  0.515264E-07  0.159889E-06
  0.287073E-06  0.472931E-06  0.716257E-06  0.998162E-06
  0.128005E-05  0.150959E-05  0.163484E-05  0.162216E-05
  0.146985E-05  0.121049E-05  0.899874E-06  0.597601E-06
  0.348500E-06  0.173774E-06  0.766265E-07  0.507860E-07
 -0.467940E-07 -0.263262E-07  0.171423E-07  0.841291E-07
  0.174340E-06  0.284958E-06  0.411670E-06  0.551476E-06
  0.705310E-06 -0.876796E-06 -0.106635E-05 -0.126521E-05
  0.145581E-05  0.162055E-05  0.175374E-05  0.186651E-05
  0.197420E-05  0.207148E-05  0.212130E-05  0.207364E-05
  0.189725E-05  0.159985E-05  0.122711E-05  0.844503E-06
  0.513306E-06  0.272466E-06  0.133209E-06 -0.780017E-07
 -0.580037E-07 -0.421247E-07 -0.310086E-07  0.272688E-07
  0.258872E-07  0.156238E-06  0.283537E-06  0.470238E-06
  0.715320E-06  0.999882E-06  0.128502E-05  0.151776E-05
  0.164532E-05  0.163328E-05  0.147957E-05  0.121707E-05
  0.902719E-06  0.597965E-06  0.350583E-06  0.187771E-06
  0.120718E-06  0.118020E-06  0.120674E-06  0.107766E-06
  0.859012E-07  0.103230E-06  0.190352E-06  0.317083E-06
  0.462536E-06  0.612803E-06 -0.759239E-06 -0.899612E-06
 -0.103583E-05 -0.116834E-05 -0.129294E-05 -0.140588E-05
  0.151527E-05  0.164483E-05  0.181487E-05  0.201103E-05
  0.217756E-05  0.224502E-05  0.216540E-05  0.193311E-05
  0.158592E-05  0.118885E-05  0.810129E-06  0.499938E-06
  0.280001E-06  0.145146E-06  0.726532E-07 -0.351851E-07
 -0.143740E-07  0.791044E-08  0.118527E-07  0.150944E-06
  0.274568E-06  0.456137E-06  0.694912E-06  0.972855E-06
  0.125245E-05  0.148234E-05  0.161099E-05  0.160437E-05
  0.145969E-05  0.120822E-05  0.905293E-06  0.612044E-06
  0.378892E-06  0.238765E-06  0.195595E-06  0.201878E-06
  0.210732E-06  0.205783E-06  0.188816E-06  0.186467E-06
  0.244912E-06  0.367464E-06  0.523571E-06  0.685860E-06
 -0.834152E-06 -0.955976E-06 -0.104664E-05 -0.110738E-05
 -0.114409E-05 -0.117200E-05 -0.122589E-05  0.135598E-05
  0.158770E-05  0.188417E-05  0.216278E-05  0.233650E-05
  0.234597E-05  0.217679E-05  0.186085E-05  0.146232E-05
  0.105439E-05  0.696747E-06  0.422346E-06  0.236239E-06
  0.123561E-06  0.611475E-07  0.280750E-07  0.118753E-07
  0.830476E-08  0.144293E-06  0.260788E-06  0.431735E-06
  0.656762E-06  0.919503E-06  0.118546E-05  0.140706E-05
  0.153621E-05  0.154059E-05  0.141657E-05  0.119226E-05
  0.918834E-06  0.654502E-06  0.449204E-06  0.332887E-06
  0.298344E-06  0.304054E-06  0.315187E-06  0.315606E-06
  0.302219E-06  0.290545E-06  0.320927E-06  0.422501E-06
  0.576333E-06  0.745943E-06 -0.899806E-06 -0.101464E-05
 -0.107590E-05 -0.107779E-05 -0.102535E-05 -0.945144E-06
 -0.909089E-06  0.102527E-05  0.132314E-05  0.171616E-05
  0.209085E-05  0.235130E-05  0.243458E-05  0.232201E-05
  0.204108E-05  0.165379E-05  0.123510E-05  0.850371E-06
  0.540498E-06  0.318455E-06  0.175480E-06  0.917232E-07
  0.462402E-07  0.232001E-07  0.130814E-07  0.136340E-06
  0.242936E-06  0.398900E-06  0.604345E-06  0.845316E-06
  0.109178E-05  0.130192E-05  0.143303E-05  0.145580E-05
  0.136579E-05  0.118638E-05  0.961549E-06  0.741975E-06
  0.570166E-06  0.467786E-06  0.428064E-06  0.425231E-06
  0.434345E-06  0.438608E-06  0.430014E-06  0.415286E-06
  0.424352E-06  0.495839E-06  0.632570E-06  0.799870E-06
 -0.956916E-06 -0.106995E-05 -0.111441E-05 -0.107523E-05
 -0.948499E-06 -0.752860E-06 -0.582036E-06  0.674215E-06
  0.105828E-05  0.153725E-05  0.198024E-05  0.229826E-05
  0.243305E-05  0.236576E-05  0.212048E-05  0.175537E-05
  0.134362E-05  0.952096E-06  0.625874E-06  0.383315E-06
  0.220536E-06  0.120887E-06  0.644758E-07  0.345002E-07
  0.194398E-07  0.127058E-06  0.221893E-06  0.360054E-06
  0.542312E-06  0.757759E-06  0.981997E-06  0.118049E-05
  0.131746E-05  0.136753E-05  0.132506E-05  0.120653E-05
  0.104459E-05  0.876835E-06  0.734429E-06  0.635076E-06
  0.581447E-06  0.564360E-06  0.568268E-06  0.576372E-06
  0.575905E-06  0.565942E-06  0.566146E-06  0.612585E-06
  0.724383E-06  0.879285E-06  0.103331E-05 -0.114374E-05
 -0.117708E-05 -0.111063E-05 -0.932553E-06 -0.643742E-06
 -0.283816E-06  0.351134E-06  0.860763E-06  0.139490E-05
  0.186470E-05  0.220226E-05  0.235937E-05  0.231995E-05
  0.210550E-05  0.176887E-05  0.137816E-05  0.997599E-06
  0.672708E-06  0.424582E-06  0.252903E-06  0.144093E-06
  0.800716E-07  0.444788E-07  0.253669E-07  0.116510E-06
  0.198704E-06  0.317900E-06  0.475722E-06  0.664770E-06
  0.867002E-06  0.105607E-05  0.120384E-05  0.128893E-05
  0.130337E-05  0.125413E-05  0.115925E-05  0.104127E-05
  0.922129E-06  0.820531E-06  0.750243E-06  0.716853E-06
  0.714538E-06  0.727770E-06  0.739435E-06  0.741950E-06
  0.746891E-06  0.784170E-06  0.878316E-06  0.101921E-05
  0.116603E-05  0.127088E-05 -0.129388E-05 -0.120878E-05
 -0.100466E-05 -0.687785E-06 -0.305809E-06  0.350265E-06
  0.847849E-06  0.135887E-05  0.179871E-05  0.210965E-05
  0.225268E-05  0.221614E-05  0.201986E-05  0.171040E-05
  0.134811E-05  0.990934E-06  0.681291E-06  0.440312E-06
  0.269726E-06  0.158606E-06  0.910700E-07  0.520571E-07
  0.301221E-07  0.104937E-06  0.174516E-06  0.275053E-06
  0.409170E-06  0.573116E-06  0.755320E-06  0.937596E-06
  0.109912E-05  0.122166E-05  0.129361E-05  0.131135E-05
  0.127854E-05  0.120506E-05  0.110663E-05  0.100407E-05
  0.920179E-06  0.872849E-06  0.865880E-06  0.886095E-06
  0.912755E-06  0.932798E-06  0.952341E-06  0.996524E-06
  0.108957E-05  0.122670E-05  0.137026E-05  0.147022E-05
  0.148367E-05 -0.138570E-05 -0.117601E-05 -0.890816E-06
  0.651899E-06  0.714831E-06  0.106763E-05  0.148164E-05
  0.183791E-05  0.207609E-05  0.216516E-05  0.210002E-05
  0.190081E-05  0.160812E-05  0.127296E-05  0.944212E-06
  0.658092E-06  0.433140E-06  0.271409E-06  0.163839E-06
  0.967124E-07  0.566729E-07  0.333217E-07  0.927305E-07
  0.150425E-06  0.233651E-06  0.346007E-06  0.487111E-06
  0.651234E-06  0.827369E-06  0.100080E-05  0.115542E-05
  0.127596E-05  0.134987E-05  0.136969E-05  0.133595E-05
  0.125954E-05  0.116200E-05  0.107212E-05  0.101710E-05
  0.100912E-05  0.103778E-05  0.107976E-05  0.111821E-05
  0.115646E-05  0.121758E-05  0.132443E-05  0.147230E-05
  0.162308E-05  0.172449E-05  0.173259E-05  0.162714E-05
  0.142297E-05  0.118498E-05  0.104695E-05  0.114214E-05
  0.142248E-05  0.174080E-05  0.199502E-05  0.213333E-05
  0.213748E-05  0.201370E-05  0.178670E-05  0.149365E-05
  0.117657E-05  0.873920E-06  0.613467E-06  0.408880E-06
  0.260767E-06  0.160884E-06  0.972661E-07  0.582955E-07
  0.348539E-07  0.803269E-07  0.127292E-06  0.195062E-06
  0.287971E-06  0.408286E-06  0.554866E-06  0.722285E-06
  0.900541E-06  0.107537E-05  0.122935E-05  0.134441E-05
  0.140593E-05  0.140771E-05  0.135614E-05  0.127161E-05
  0.118562E-05  0.113124E-05  0.112666E-05  0.116390E-05
  0.121850E-05  0.127197E-05  0.132754E-05  0.140879E-05
  0.153790E-05  0.170767E-05  0.187632E-05  0.198803E-05
  0.199804E-05  0.189176E-05  0.169869E-05  0.150337E-05
  0.143231E-05  0.155701E-05  0.180689E-05  0.205780E-05
  0.222242E-05  0.226122E-05  0.217106E-05  0.197268E-05
  0.169968E-05  0.138988E-05  0.107894E-05  0.795541E-06
  0.558242E-06  0.374402E-06  0.241745E-06  0.151771E-06
  0.936544E-07  0.572831E-07  0.348185E-07  0.681101E-07
  0.105652E-06  0.159884E-06  0.235443E-06  0.336252E-06
  0.464247E-06  0.617919E-06  0.790933E-06  0.971255E-06
  0.114157E-05  0.128172E-05  0.137334E-05  0.140567E-05
  0.138080E-05  0.131639E-05  0.124371E-05  0.119799E-05
  0.120034E-05  0.124448E-05  0.130638E-05  0.136836E-05
  0.143586E-05  0.153498E-05  0.168808E-05  0.188460E-05
  0.207768E-05  0.220715E-05  0.222731E-05  0.212845E-05
  0.195170E-05  0.179323E-05  0.176883E-05  0.191502E-05
  0.214775E-05  0.235038E-05  0.244419E-05  0.239957E-05
  0.222587E-05  0.195666E-05  0.163492E-05  0.130163E-05
  0.989115E-06  0.718619E-06  0.500446E-06  0.335557E-06
  0.218147E-06  0.138730E-06  0.870607E-07  0.542012E-07
  0.334516E-07  0.563785E-07  0.857681E-07  0.128210E-06
  0.188155E-06  0.270192E-06  0.377936E-06  0.512427E-06
  0.670295E-06  0.842285E-06  0.101305E-05  0.116308E-05
  0.127296E-05  0.132923E-05  0.133030E-05  0.129014E-05
  0.123735E-05  0.120583E-05  0.121653E-05  0.126417E-05
  0.132668E-05  0.138931E-05  0.146134E-05  0.157252E-05
  0.174586E-05  0.196750E-05  0.218572E-05  0.233673E-05
  0.237407E-05  0.229145E-05  0.213734E-05  0.201241E-05
  0.202082E-05  0.217762E-05  0.239261E-05  0.255470E-05
  0.259228E-05  0.248372E-05  0.224741E-05  0.192561E-05
  0.156769E-05  0.121706E-05  0.904116E-06  0.644943E-06
  0.443617E-06  0.295865E-06  0.192721E-06  0.123611E-06
  0.785938E-07  0.496510E-07  0.310479E-07  0.453744E-07
  0.677802E-07  0.100005E-06  0.145921E-06  0.210003E-06
  0.296485E-06  0.407922E-06  0.543334E-06  0.696471E-06
  0.855063E-06  0.100198E-05  0.111873E-05  0.119090E-05
  0.121409E-05  0.119832E-05  0.116782E-05  0.115239E-05
  0.117045E-05  0.121720E-05  0.127377E-05  0.132976E-05
  0.139895E-05  0.151474E-05  0.170075E-05  0.194033E-05
  0.217861E-05  0.235019E-05  0.240878E-05  0.234999E-05
  0.222477E-05  0.213159E-05  0.216176E-05  0.231713E-05
  0.250802E-05  0.263129E-05  0.262332E-05  0.246956E-05
  0.219444E-05  0.184465E-05  0.147185E-05  0.111930E-05
  0.815005E-06  0.571162E-06  0.387582E-06  0.256501E-06
  0.166904E-06  0.107615E-06  0.690930E-07  0.441523E-07
  0.279002E-07  0.353276E-07  0.518352E-07  0.753508E-07
  0.108950E-06  0.156516E-06  0.222199E-06  0.309309E-06
  0.418659E-06  0.546789E-06  0.684816E-06  0.818852E-06
  0.932617E-06  0.101211E-05  0.105124E-05  0.105633E-05
  0.104635E-05  0.104539E-05  0.106794E-05  0.110950E-05
  0.115514E-05  0.119925E-05  0.125978E-05  0.137279E-05
  0.156183E-05  0.180840E-05  0.205702E-05  0.224363E-05
  0.232361E-05  0.229317E-05  0.220114E-05  0.213776E-05
  0.218022E-05  0.232284E-05  0.248244E-05  0.256721E-05
  0.252302E-05  0.234171E-05  0.205110E-05  0.169852E-05
  0.133408E-05  0.998080E-06  0.715018E-06  0.493655E-06
  0.330992E-06  0.217435E-06  0.141232E-06  0.913926E-07
  0.591150E-07  0.381092E-07  0.242722E-07  0.264645E-07
  0.381178E-07  0.544505E-07  0.777057E-07  0.110966E-06
  0.157905E-06  0.222030E-06  0.305331E-06  0.406592E-06
  0.520029E-06  0.635140E-06  0.738479E-06  0.817464E-06
  0.865328E-06  0.885316E-06  0.891133E-06  0.900617E-06
  0.924019E-06  0.957214E-06  0.989289E-06  0.101909E-05
  0.106749E-05  0.117157E-05  0.135380E-05  0.159480E-05
  0.184147E-05  0.203421E-05  0.213174E-05  0.213004E-05
  0.207209E-05  0.203533E-05  0.208209E-05  0.220329E-05
  0.232668E-05  0.237477E-05  0.230392E-05  0.211146E-05
  0.182621E-05  0.149296E-05  0.115722E-05  0.854182E-06
  0.603901E-06  0.411968E-06  0.273629E-06  0.178769E-06
  0.116032E-06  0.753586E-07  0.490561E-07  0.318461E-07
  0.204017E-07  0.189737E-07  0.267870E-07  0.374761E-07
  0.525455E-07  0.742706E-07  0.105675E-06  0.150090E-06
  0.210103E-06  0.286059E-06  0.374642E-06  0.468381E-06
  0.556765E-06  0.629179E-06  0.679006E-06  0.707214E-06
  0.722813E-06  0.737892E-06  0.758901E-06  0.782243E-06
  0.800652E-06  0.816415E-06  0.851680E-06  0.942566E-06
  0.110943E-05  0.133304E-05  0.156533E-05  0.175383E-05
  0.186207E-05  0.188537E-05  0.185856E-05  0.184374E-05
  0.188866E-05  0.198360E-05  0.206985E-05  0.208571E-05
  0.199822E-05  0.180904E-05  0.154587E-05  0.124860E-05
  0.956127E-06  0.697321E-06  0.487421E-06  0.329252E-06
  0.217147E-06  0.141419E-06  0.918962E-07  0.599655E-07
  0.392878E-07  0.256622E-07  0.165148E-07  0.129548E-07
  0.178838E-07  0.244006E-07  0.334309E-07  0.465497E-07
  0.661115E-07  0.950535E-07  0.136107E-06  0.190497E-06
  0.256636E-06  0.329483E-06  0.401196E-06  0.463290E-06
  0.509843E-06  0.540342E-06  0.560066E-06  0.576430E-06
  0.592952E-06  0.606697E-06  0.613350E-06  0.617362E-06
  0.640433E-06  0.715973E-06  0.861327E-06  0.105834E-05
  0.126591E-05  0.144041E-05  0.155109E-05  0.159261E-05
  0.159085E-05  0.159225E-05  0.163129E-05  0.169928E-05
  0.175157E-05  0.174207E-05  0.164775E-05  0.147330E-05
  0.124363E-05  0.992328E-06  0.750776E-06  0.541193E-06
  0.374262E-06  0.250622E-06  0.164391E-06  0.106938E-06
  0.697130E-07  0.457768E-07  0.302082E-07  0.198528E-07
  0.128274E-07  0.838441E-08  0.112777E-07  0.149217E-07
  0.198349E-07  0.270443E-07  0.383069E-07  0.560834E-07
  0.829306E-07  0.120406E-06  0.167962E-06  0.222341E-06