 Entering Gaussian System, Link 0=g16
 Input=methylazulene_GIMIC.gjf
 Output=methylazulene_GIMIC.log
 Initial command:
 /home/wangzhe/g16/l1.exe "/home/wangzhe/g16/Scratch/Gau-183710.inp" -scrdir="/home/wangzhe/g16/Scratch/"
 Default is to use a total of  16 processors:
                               16 via shared-memory
                                1 via Linda
 Entering Link 1 = /home/wangzhe/g16/l1.exe PID=    183711.
  
 Copyright (c) 1988-2017, Gaussian, Inc.  All Rights Reserved.
  
 This is part of the Gaussian(R) 16 program.  It is based on
 the Gaussian(R) 09 system (copyright 2009, Gaussian, Inc.),
 the Gaussian(R) 03 system (copyright 2003, Gaussian, Inc.),
 the Gaussian(R) 98 system (copyright 1998, Gaussian, Inc.),
 the Gaussian(R) 94 system (copyright 1995, Gaussian, Inc.),
 the Gaussian 92(TM) system (copyright 1992, Gaussian, Inc.),
 the Gaussian 90(TM) system (copyright 1990, Gaussian, Inc.),
 the Gaussian 88(TM) system (copyright 1988, Gaussian, Inc.),
 the Gaussian 86(TM) system (copyright 1986, Carnegie Mellon
 University), and the Gaussian 82(TM) system (copyright 1983,
 Carnegie Mellon University). Gaussian is a federally registered
 trademark of Gaussian, Inc.
  
 This software contains proprietary and confidential information,
 including trade secrets, belonging to Gaussian, Inc.
  
 This software is provided under written license and may be
 used, copied, transmitted, or stored only in accord with that
 written license.
  
 The following legend is applicable only to US Government
 contracts under FAR:
  
                    RESTRICTED RIGHTS LEGEND
  
 Use, reproduction and disclosure by the US Government is
 subject to restrictions as set forth in subparagraphs (a)
 and (c) of the Commercial Computer Software - Restricted
 Rights clause in FAR 52.227-19.
  
 Gaussian, Inc.
 340 Quinnipiac St., Bldg. 40, Wallingford CT 06492
  
  
 ---------------------------------------------------------------
 Warning -- This program may not be used in any manner that
 competes with the business of Gaussian, Inc. or will provide
 assistance to any competitor of Gaussian, Inc.  The licensee
 of this program is prohibited from giving any competitor of
 Gaussian, Inc. access to this program.  By using this program,
 the user acknowledges that Gaussian, Inc. is engaged in the
 business of creating and licensing software in the field of
 computational chemistry and represents and warrants to the
 licensee that it is not a competitor of Gaussian, Inc. and that
 it will not use this program in any manner prohibited above.
 ---------------------------------------------------------------
  

 Cite this work as:
 Gaussian 16, Revision B.01,
 M. J. Frisch, G. W. Trucks, H. B. Schlegel, G. E. Scuseria, 
 M. A. Robb, J. R. Cheeseman, G. Scalmani, V. Barone, 
 G. A. Petersson, H. Nakatsuji, X. Li, M. Caricato, A. V. Marenich, 
 J. Bloino, B. G. Janesko, R. Gomperts, B. Mennucci, H. P. Hratchian, 
 J. V. Ortiz, A. F. Izmaylov, J. L. Sonnenberg, D. Williams-Young, 
 F. Ding, F. Lipparini, F. Egidi, J. Goings, B. Peng, A. Petrone, 
 T. Henderson, D. Ranasinghe, V. G. Zakrzewski, J. Gao, N. Rega, 
 G. Zheng, W. Liang, M. Hada, M. Ehara, K. Toyota, R. Fukuda, 
 J. Hasegawa, M. Ishida, T. Nakajima, Y. Honda, O. Kitao, H. Nakai, 
 T. Vreven, K. Throssell, J. A. Montgomery, Jr., J. E. Peralta, 
 F. Ogliaro, M. J. Bearpark, J. J. Heyd, E. N. Brothers, K. N. Kudin, 
 V. N. Staroverov, T. A. Keith, R. Kobayashi, J. Normand, 
 K. Raghavachari, A. P. Rendell, J. C. Burant, S. S. Iyengar, 
 J. Tomasi, M. Cossi, J. M. Millam, M. Klene, C. Adamo, R. Cammi, 
 J. W. Ochterski, R. L. Martin, K. Morokuma, O. Farkas, 
 J. B. Foresman, and D. J. Fox, Gaussian, Inc., Wallingford CT, 2016.
 
 ******************************************
 Gaussian 16:  ES64L-G16RevB.01 20-Dec-2017
                28-May-2021 
 ******************************************
 %nprocshared=8
 Will use up to    8 processors via shared memory.
 %mem=10GB
 %chk=methylazulene_GIMIC.chk
 -------------------------------------------------------------
 #p nmr=giao rb3lyp/6-31g(d) iop(10/33=2) int=nobasistransform
 -------------------------------------------------------------
 1/38=1,172=1/1;
 2/12=2,17=6,18=5,40=1/2;
 3/5=1,6=6,7=1,11=2,25=1,30=1,60=-1,74=-5,116=1/1,2,3,8;
 4//1;
 5/5=2,38=5/2;
 8/6=1,10=90,11=11/1;
 10/13=100,33=2,45=16/2;
 6/7=2,8=2,9=2,10=2,28=1/1;
 99/9=1/99;
 Leave Link    1 at Fri May 28 14:01:30 2021, MaxMem=  1342177280 cpu:               0.3 elap:               0.0
 (Enter /home/wangzhe/g16/l101.exe)
 -------------------
 Title Card Required
 -------------------
 Symbolic Z-matrix:
 Charge =  0 Multiplicity = 1
 C                    -2.68122  -0.69594   0.00003 
 H                    -3.70025  -1.07886   0.00004 
 C                    -2.57389   0.69577   0.00012 
 H                    -3.51455   1.24088   0.0002 
 C                    -1.42188   1.47672   0.00012 
 H                    -1.57995   2.55485   0.00014 
 C                    -0.09126   1.07521   0.00002 
 C                     1.02154   1.92054  -0.00007 
 H                     0.98652   3.00303  -0.00011 
 C                     2.17511   1.1262   -0.00016 
 H                     3.1925    1.505    -0.00026 
 C                     1.8423   -0.23366   0.00008 
 C                     0.43671  -0.32326  -0.00015 
 C                    -1.68554  -1.66885  -0.00009 
 H                    -2.03235  -2.69928  -0.0001 
 C                    -0.30028  -1.49721  -0.00018 
 H                     0.28392  -2.41707  -0.0002 
 C                     2.80571  -1.38304   0.00022 
 H                     2.68121  -2.02129   0.88362 
 H                     2.68123  -2.02145  -0.88307 
 H                     3.83788  -1.02067   0.0002 
 
 ITRead=  0  0  0  0  0  0  0  0  0  0  0  0  0  0  0  0  0  0  0  0
 ITRead=  0
 MicOpt= -1 -1 -1 -1 -1 -1 -1 -1 -1 -1 -1 -1 -1 -1 -1 -1 -1 -1 -1 -1
 MicOpt= -1
 NAtoms=     21 NQM=       21 NQMF=       0 NMMI=      0 NMMIF=      0
                NMic=       0 NMicF=      0.
                    Isotopes and Nuclear Properties:
 (Nuclear quadrupole moments (NQMom) in fm**2, nuclear magnetic moments (NMagM)
  in nuclear magnetons)

  Atom         1           2           3           4           5           6           7           8           9          10
 IAtWgt=          12           1          12           1          12           1          12          12           1          12
 AtmWgt=  12.0000000   1.0078250  12.0000000   1.0078250  12.0000000   1.0078250  12.0000000  12.0000000   1.0078250  12.0000000
 NucSpn=           0           1           0           1           0           1           0           0           1           0
 AtZEff=  -0.0000000  -0.0000000  -0.0000000  -0.0000000  -0.0000000  -0.0000000  -0.0000000  -0.0000000  -0.0000000  -0.0000000
 NQMom=    0.0000000   0.0000000   0.0000000   0.0000000   0.0000000   0.0000000   0.0000000   0.0000000   0.0000000   0.0000000
 NMagM=    0.0000000   2.7928460   0.0000000   2.7928460   0.0000000   2.7928460   0.0000000   0.0000000   2.7928460   0.0000000
 AtZNuc=   6.0000000   1.0000000   6.0000000   1.0000000   6.0000000   1.0000000   6.0000000   6.0000000   1.0000000   6.0000000

  Atom        11          12          13          14          15          16          17          18          19          20
 IAtWgt=           1          12          12          12           1          12           1          12           1           1
 AtmWgt=   1.0078250  12.0000000  12.0000000  12.0000000   1.0078250  12.0000000   1.0078250  12.0000000   1.0078250   1.0078250
 NucSpn=           1           0           0           0           1           0           1           0           1           1
 AtZEff=  -0.0000000  -0.0000000  -0.0000000  -0.0000000  -0.0000000  -0.0000000  -0.0000000  -0.0000000  -0.0000000  -0.0000000
 NQMom=    0.0000000   0.0000000   0.0000000   0.0000000   0.0000000   0.0000000   0.0000000   0.0000000   0.0000000   0.0000000
 NMagM=    2.7928460   0.0000000   0.0000000   0.0000000   2.7928460   0.0000000   2.7928460   0.0000000   2.7928460   2.7928460
 AtZNuc=   1.0000000   6.0000000   6.0000000   6.0000000   1.0000000   6.0000000   1.0000000   6.0000000   1.0000000   1.0000000

  Atom        21
 IAtWgt=           1
 AtmWgt=   1.0078250
 NucSpn=           1
 AtZEff=  -0.0000000
 NQMom=    0.0000000
 NMagM=    2.7928460
 AtZNuc=   1.0000000
 Leave Link  101 at Fri May 28 14:01:30 2021, MaxMem=  1342177280 cpu:               0.2 elap:               0.0
 (Enter /home/wangzhe/g16/l202.exe)
                          Input orientation:                          
 ---------------------------------------------------------------------
 Center     Atomic      Atomic             Coordinates (Angstroms)
 Number     Number       Type             X           Y           Z
 ---------------------------------------------------------------------
      1          6           0       -2.681223   -0.695936    0.000026
      2          1           0       -3.700245   -1.078860    0.000044
      3          6           0       -2.573890    0.695773    0.000118
      4          1           0       -3.514548    1.240878    0.000195
      5          6           0       -1.421876    1.476723    0.000117
      6          1           0       -1.579954    2.554847    0.000135
      7          6           0       -0.091255    1.075207    0.000022
      8          6           0        1.021543    1.920539   -0.000066
      9          1           0        0.986520    3.003032   -0.000113
     10          6           0        2.175110    1.126197   -0.000164
     11          1           0        3.192497    1.504996   -0.000257
     12          6           0        1.842302   -0.233664    0.000077
     13          6           0        0.436710   -0.323263   -0.000152
     14          6           0       -1.685544   -1.668846   -0.000093
     15          1           0       -2.032353   -2.699281   -0.000099
     16          6           0       -0.300280   -1.497213   -0.000180
     17          1           0        0.283921   -2.417073   -0.000201
     18          6           0        2.805710   -1.383036    0.000219
     19          1           0        2.681208   -2.021294    0.883616
     20          1           0        2.681231   -2.021450   -0.883065
     21          1           0        3.837881   -1.020675    0.000200
 ---------------------------------------------------------------------
                    Distance matrix (angstroms):
                    1          2          3          4          5
     1  C    0.000000
     2  H    1.088594   0.000000
     3  C    1.395842   2.101903   0.000000
     4  H    2.108478   2.327159   1.087188   0.000000
     5  C    2.511255   3.423736   1.391768   2.105920   0.000000
     6  H    3.432256   4.207073   2.108095   2.338625   1.089651
     7  C    3.137655   4.202953   2.511463   3.427300   1.389880
     8  C    4.533919   5.593896   3.798314   4.586727   2.483399
     9  H    5.209098   6.215111   4.242636   4.833715   2.851314
    10  C    5.186920   6.275514   4.768466   5.690814   3.614025
    11  H    6.272534   7.361128   5.822891   6.712243   4.614460
    12  C    4.547084   5.606620   4.512938   5.556088   3.685143
    13  C    3.140126   4.205392   3.178387   4.249586   2.587333
    14  C    1.392096   2.099310   2.525981   3.436823   3.156600
    15  H    2.105807   2.325431   3.437972   4.209721   4.220390
    16  C    2.512157   3.425607   3.158875   4.222400   3.178407
    17  H    3.428468   4.202903   4.225742   5.273421   4.251046
    18  C    5.529787   6.513062   5.767282   6.843288   5.103989
    19  H    5.594012   6.510900   5.981561   7.057591   5.463698
    20  H    5.593992   6.510883   5.981606   7.057663   5.463764
    21  H    6.527187   7.538351   6.637545   7.692388   5.822546
                    6          7          8          9         10
     6  H    0.000000
     7  C    2.098942   0.000000
     8  C    2.677710   1.397464   0.000000
     9  H    2.605314   2.208644   1.083059   0.000000
    10  C    4.017654   2.266939   1.400606   2.221544   0.000000
    11  H    4.886561   3.311759   2.210366   2.666542   1.085617
    12  C    4.414480   2.334906   2.305263   3.347919   1.399994
    13  C    3.514321   1.494813   2.318766   3.371428   2.263398
    14  C    4.225013   3.173576   4.495776   5.382041   4.766226
    15  H    5.273569   4.244363   5.537962   6.452129   5.686565
    16  C    4.249324   2.580898   3.664457   4.680605   3.606915
    17  H    5.309804   3.512375   4.399882   5.465454   4.016386
    18  C    5.894147   3.799390   3.754579   4.748373   2.587259
    19  H    6.314991   4.249189   4.367314   5.375574   3.308157
    20  H    6.315080   4.249212   4.367325   5.375599   3.308074
    21  H    6.491324   4.453182   4.072162   4.931580   2.715486
                   11         12         13         14         15
    11  H    0.000000
    12  C    2.201355   0.000000
    13  C    3.307097   1.408445   0.000000
    14  C    5.819670   3.808601   2.512878   0.000000
    15  H    6.706340   4.592627   3.426621   1.087232   0.000000
    16  C    4.605730   2.487411   1.386114   1.395856   2.108327
    17  H    4.882872   2.682504   2.099377   2.106807   2.333402
    18  C    2.913818   1.499737   2.595242   4.500339   5.013916
    19  H    3.671154   2.163337   2.949937   4.469193   4.843374
    20  H    3.671044   2.163312   2.949788   4.469082   4.843238
    21  H    2.606825   2.145162   3.471937   5.561326   6.105519
                   16         17         18         19         20
    16  C    0.000000
    17  H    1.089694   0.000000
    18  C    3.108088   2.725555   0.000000
    19  H    3.153574   2.585490   1.096934   0.000000
    20  H    3.153366   2.585162   1.096931   1.766681   0.000000
    21  H    4.165509   3.818450   1.093930   1.766226   1.766224
                   21
    21  H    0.000000
 Stoichiometry    C11H10
 Framework group  C1[X(C11H10)]
 Deg. of freedom    57
 Full point group                 C1      NOp   1
 Largest Abelian subgroup         C1      NOp   1
 Largest concise Abelian subgroup C1      NOp   1
                         Standard orientation:                         
 ---------------------------------------------------------------------
 Center     Atomic      Atomic             Coordinates (Angstroms)
 Number     Number       Type             X           Y           Z
 ---------------------------------------------------------------------
      1          6           0       -2.681223   -0.695936    0.000026
      2          1           0       -3.700245   -1.078860    0.000044
      3          6           0       -2.573890    0.695773    0.000118
      4          1           0       -3.514548    1.240878    0.000195
      5          6           0       -1.421876    1.476723    0.000117
      6          1           0       -1.579954    2.554847    0.000135
      7          6           0       -0.091255    1.075207    0.000022
      8          6           0        1.021543    1.920539   -0.000066
      9          1           0        0.986520    3.003032   -0.000113
     10          6           0        2.175110    1.126197   -0.000164
     11          1           0        3.192497    1.504996   -0.000257
     12          6           0        1.842302   -0.233664    0.000077
     13          6           0        0.436710   -0.323263   -0.000152
     14          6           0       -1.685544   -1.668846   -0.000093
     15          1           0       -2.032353   -2.699281   -0.000099
     16          6           0       -0.300280   -1.497213   -0.000180
     17          1           0        0.283921   -2.417073   -0.000201
     18          6           0        2.805710   -1.383036    0.000219
     19          1           0        2.681208   -2.021294    0.883616
     20          1           0        2.681231   -2.021450   -0.883065
     21          1           0        3.837881   -1.020675    0.000200
 ---------------------------------------------------------------------
 Rotational constants (GHZ):           2.0981651           0.9961052           0.6782913
 Leave Link  202 at Fri May 28 14:01:30 2021, MaxMem=  1342177280 cpu:               0.0 elap:               0.0
 (Enter /home/wangzhe/g16/l301.exe)
 Standard basis: 6-31G(d) (6D, 7F)
 There are   185 symmetry adapted cartesian basis functions of A   symmetry.
 There are   185 symmetry adapted basis functions of A   symmetry.
   185 basis functions,   348 primitive gaussians,   185 cartesian basis functions
    38 alpha electrons       38 beta electrons
       nuclear repulsion energy       542.2614686642 Hartrees.
 IExCor=  402 DFT=T Ex+Corr=B3LYP ExCW=0 ScaHFX=  0.200000
 ScaDFX=  0.800000  0.720000  1.000000  0.810000 ScalE2=  1.000000  1.000000
 IRadAn=      5 IRanWt=     -1 IRanGd=            0 ICorTp=0 IEmpDi=  4
 NAtoms=   21 NActive=   21 NUniq=   21 SFac= 1.00D+00 NAtFMM=   60 NAOKFM=F Big=F
 Integral buffers will be    131072 words long.
 Raffenetti 2 integral format.
 Two-electron integral symmetry is turned on.
 Leave Link  301 at Fri May 28 14:01:30 2021, MaxMem=  1342177280 cpu:               0.1 elap:               0.0
 (Enter /home/wangzhe/g16/l302.exe)
 NPDir=0 NMtPBC=     1 NCelOv=     1 NCel=       1 NClECP=     1 NCelD=      1
         NCelK=      1 NCelE2=     1 NClLst=     1 CellRange=     0.0.
 One-electron integrals computed using PRISM.
 One-electron integral symmetry used in STVInt
 NBasis=   185 RedAO= T EigKep=  6.07D-04  NBF=   185
 NBsUse=   185 1.00D-06 EigRej= -1.00D+00 NBFU=   185
 Precomputing XC quadrature grid using
 IXCGrd= 4 IRadAn=           5 IRanWt=          -1 IRanGd=           0 AccXCQ= 0.00D+00.
 Generated NRdTot=       0 NPtTot=           0 NUsed=           0 NTot=          32
 NSgBfM=   185   185   185   185   185 MxSgAt=    21 MxSgA2=    21.
 Leave Link  302 at Fri May 28 14:01:30 2021, MaxMem=  1342177280 cpu:               0.7 elap:               0.1
 (Enter /home/wangzhe/g16/l303.exe)
 DipDrv:  MaxL=1.
 Leave Link  303 at Fri May 28 14:01:30 2021, MaxMem=  1342177280 cpu:               0.1 elap:               0.0
 (Enter /home/wangzhe/g16/l308.exe)
 Leave Link  308 at Fri May 28 14:01:30 2021, MaxMem=  1342177280 cpu:               0.1 elap:               0.0
 (Enter /home/wangzhe/g16/l401.exe)
 ExpMin= 1.61D-01 ExpMax= 3.05D+03 ExpMxC= 4.57D+02 IAcc=3 IRadAn=         5 AccDes= 0.00D+00
 Harris functional with IExCor=  402 and IRadAn=       5 diagonalized for initial guess.
 HarFok:  IExCor=  402 AccDes= 0.00D+00 IRadAn=         5 IDoV= 1 UseB2=F ITyADJ=14
 ICtDFT=  3500011 ScaDFX=  1.000000  1.000000  1.000000  1.000000
 FoFCou: FMM=F IPFlag=           0 FMFlag=      100000 FMFlg1=           0
         NFxFlg=           0 DoJE=T BraDBF=F KetDBF=T FulRan=T
         wScrn=  0.000000 ICntrl=       500 IOpCl=  0 I1Cent=   200000004 NGrid=           0
         NMat0=    1 NMatS0=      1 NMatT0=    0 NMatD0=    1 NMtDS0=    0 NMtDT0=    0
 Petite list used in FoFCou.
 Harris En= -425.198156544638    
 JPrj=0 DoOrth=F DoCkMO=F.
 Leave Link  401 at Fri May 28 14:01:31 2021, MaxMem=  1342177280 cpu:               3.4 elap:               0.4
 (Enter /home/wangzhe/g16/l502.exe)
 Integral symmetry usage will be decided dynamically.
 Closed shell SCF:
 Using DIIS extrapolation, IDIIS=  1040.
 NGot=  1342177280 LenX=  1342105174 LenY=  1342070508
 Requested convergence on RMS density matrix=1.00D-08 within 128 cycles.
 Requested convergence on MAX density matrix=1.00D-06.
 Requested convergence on             energy=1.00D-06.
 No special actions if energy rises.
 Fock matrices will be formed incrementally for  20 cycles.
 Integral accuracy reduced to 1.0D-05 until final iterations.

 Cycle   1  Pass 0  IDiag  1:
 FoFJK:  IHMeth= 1 ICntrl=       0 DoSepK=F KAlg= 0 I1Cent=           0 FoldK=F
 IRaf= 930000000 NMat=       1 IRICut=       1 DoRegI=T DoRafI=F ISym2E= 0 IDoP0=0 IntGTp=1.
 FoFCou: FMM=F IPFlag=           0 FMFlag=      100000 FMFlg1=           0
         NFxFlg=           0 DoJE=F BraDBF=F KetDBF=F FulRan=T
         wScrn=  0.000000 ICntrl=         0 IOpCl=  0 I1Cent=           0 NGrid=           0
         NMat0=    1 NMatS0=      1 NMatT0=    0 NMatD0=    1 NMtDS0=    0 NMtDT0=    0
 Symmetry not used in FoFCou.
 E= -424.889254950787    
 DIIS: error= 4.44D-02 at cycle   1 NSaved=   1.
 NSaved= 1 IEnMin= 1 EnMin= -424.889254950787     IErMin= 1 ErrMin= 4.44D-02
 ErrMax= 4.44D-02  0.00D+00 EMaxC= 1.00D-01 BMatC= 2.35D-01 BMatP= 2.35D-01
 IDIUse=3 WtCom= 5.56D-01 WtEn= 4.44D-01
 Coeff-Com:  0.100D+01
 Coeff-En:   0.100D+01
 Coeff:      0.100D+01
 Gap=     0.100 Goal=   None    Shift=    0.000
 GapD=    0.100 DampG=0.500 DampE=0.500 DampFc=0.2500 IDamp=-1.
 Damping current iteration by 2.50D-01
 RMSDP=6.42D-03 MaxDP=1.34D-01              OVMax= 1.93D-01

 Cycle   2  Pass 0  IDiag  1:
 RMSU=  1.58D-03    CP:  9.88D-01
 E= -424.983523156771     Delta-E=       -0.094268205984 Rises=F Damp=T
 DIIS: error= 2.49D-02 at cycle   2 NSaved=   2.
 NSaved= 2 IEnMin= 2 EnMin= -424.983523156771     IErMin= 2 ErrMin= 2.49D-02
 ErrMax= 2.49D-02  0.00D+00 EMaxC= 1.00D-01 BMatC= 6.98D-02 BMatP= 2.35D-01
 IDIUse=3 WtCom= 7.51D-01 WtEn= 2.49D-01
 Coeff-Com: -0.101D+01 0.201D+01
 Coeff-En:   0.000D+00 0.100D+01
 Coeff:     -0.756D+00 0.176D+01
 Gap=     0.126 Goal=   None    Shift=    0.000
 RMSDP=3.00D-03 MaxDP=4.91D-02 DE=-9.43D-02 OVMax= 1.80D-01

 Cycle   3  Pass 0  IDiag  1:
 RMSU=  2.55D-03    CP:  9.43D-01  1.71D+00
 E= -425.134556424554     Delta-E=       -0.151033267783 Rises=F Damp=F
 DIIS: error= 1.74D-02 at cycle   3 NSaved=   3.
 NSaved= 3 IEnMin= 3 EnMin= -425.134556424554     IErMin= 3 ErrMin= 1.74D-02
 ErrMax= 1.74D-02  0.00D+00 EMaxC= 1.00D-01 BMatC= 1.64D-02 BMatP= 6.98D-02
 IDIUse=3 WtCom= 8.26D-01 WtEn= 1.74D-01
 Coeff-Com: -0.493D+00 0.101D+01 0.479D+00
 Coeff-En:   0.000D+00 0.000D+00 0.100D+01
 Coeff:     -0.407D+00 0.838D+00 0.570D+00
 Gap=     0.111 Goal=   None    Shift=    0.000
 RMSDP=1.62D-03 MaxDP=2.91D-02 DE=-1.51D-01 OVMax= 1.42D-01

 Cycle   4  Pass 0  IDiag  1:
 RMSU=  1.30D-03    CP:  9.49D-01  1.79D+00  6.25D-01
 E= -425.136195648788     Delta-E=       -0.001639224234 Rises=F Damp=F
 DIIS: error= 1.91D-02 at cycle   4 NSaved=   4.
 NSaved= 4 IEnMin= 4 EnMin= -425.136195648788     IErMin= 3 ErrMin= 1.74D-02
 ErrMax= 1.91D-02  0.00D+00 EMaxC= 1.00D-01 BMatC= 1.50D-02 BMatP= 1.64D-02
 IDIUse=3 WtCom= 8.09D-01 WtEn= 1.91D-01
 Coeff-Com: -0.191D-01 0.843D-01 0.473D+00 0.462D+00
 Coeff-En:   0.000D+00 0.000D+00 0.486D+00 0.514D+00
 Coeff:     -0.154D-01 0.682D-01 0.475D+00 0.472D+00
 Gap=     0.119 Goal=   None    Shift=    0.000
 RMSDP=8.38D-04 MaxDP=1.53D-02 DE=-1.64D-03 OVMax= 7.98D-02

 Cycle   5  Pass 0  IDiag  1:
 RMSU=  2.09D-04    CP:  9.48D-01  1.71D+00  7.74D-01  4.56D-01
 E= -425.155714469007     Delta-E=       -0.019518820218 Rises=F Damp=F
 DIIS: error= 1.06D-03 at cycle   5 NSaved=   5.
 NSaved= 5 IEnMin= 5 EnMin= -425.155714469007     IErMin= 5 ErrMin= 1.06D-03
 ErrMax= 1.06D-03  0.00D+00 EMaxC= 1.00D-01 BMatC= 1.71D-04 BMatP= 1.50D-02
 IDIUse=3 WtCom= 9.89D-01 WtEn= 1.06D-02
 Coeff-Com:  0.658D-02 0.467D-03 0.185D+00 0.209D+00 0.600D+00
 Coeff-En:   0.000D+00 0.000D+00 0.000D+00 0.000D+00 0.100D+01
 Coeff:      0.651D-02 0.462D-03 0.183D+00 0.207D+00 0.604D+00
 Gap=     0.119 Goal=   None    Shift=    0.000
 RMSDP=1.22D-04 MaxDP=2.80D-03 DE=-1.95D-02 OVMax= 8.20D-03

 Cycle   6  Pass 0  IDiag  1:
 RMSU=  6.95D-05    CP:  9.48D-01  1.71D+00  7.80D-01  5.02D-01  6.27D-01
 E= -425.155853008769     Delta-E=       -0.000138539763 Rises=F Damp=F
 DIIS: error= 5.52D-04 at cycle   6 NSaved=   6.
 NSaved= 6 IEnMin= 6 EnMin= -425.155853008769     IErMin= 6 ErrMin= 5.52D-04
 ErrMax= 5.52D-04  0.00D+00 EMaxC= 1.00D-01 BMatC= 4.51D-05 BMatP= 1.71D-04
 IDIUse=3 WtCom= 9.94D-01 WtEn= 5.52D-03
 Coeff-Com:  0.584D-02-0.944D-02 0.479D-01 0.618D-01 0.369D+00 0.525D+00
 Coeff-En:   0.000D+00 0.000D+00 0.000D+00 0.000D+00 0.216D+00 0.784D+00
 Coeff:      0.581D-02-0.939D-02 0.476D-01 0.615D-01 0.368D+00 0.526D+00
 Gap=     0.119 Goal=   None    Shift=    0.000
 RMSDP=4.32D-05 MaxDP=1.18D-03 DE=-1.39D-04 OVMax= 3.06D-03

 Cycle   7  Pass 0  IDiag  1:
 RMSU=  1.62D-05    CP:  9.48D-01  1.71D+00  7.80D-01  4.94D-01  7.31D-01
                    CP:  5.38D-01
 E= -425.155898044353     Delta-E=       -0.000045035584 Rises=F Damp=F
 DIIS: error= 9.15D-05 at cycle   7 NSaved=   7.
 NSaved= 7 IEnMin= 7 EnMin= -425.155898044353     IErMin= 7 ErrMin= 9.15D-05
 ErrMax= 9.15D-05  0.00D+00 EMaxC= 1.00D-01 BMatC= 1.20D-06 BMatP= 4.51D-05
 IDIUse=1 WtCom= 1.00D+00 WtEn= 0.00D+00
 Coeff-Com:  0.127D-02-0.243D-02 0.103D-01 0.148D-01 0.126D+00 0.229D+00
 Coeff-Com:  0.621D+00
 Coeff:      0.127D-02-0.243D-02 0.103D-01 0.148D-01 0.126D+00 0.229D+00
 Coeff:      0.621D+00
 Gap=     0.119 Goal=   None    Shift=    0.000
 RMSDP=1.21D-05 MaxDP=2.60D-04 DE=-4.50D-05 OVMax= 7.61D-04

 Cycle   8  Pass 0  IDiag  1:
 RMSU=  8.36D-06    CP:  9.48D-01  1.71D+00  7.81D-01  4.96D-01  7.22D-01
                    CP:  5.97D-01  5.95D-01
 E= -425.155898873575     Delta-E=       -0.000000829222 Rises=F Damp=F
 DIIS: error= 6.34D-05 at cycle   8 NSaved=   8.
 NSaved= 8 IEnMin= 8 EnMin= -425.155898873575     IErMin= 8 ErrMin= 6.34D-05
 ErrMax= 6.34D-05  0.00D+00 EMaxC= 1.00D-01 BMatC= 4.65D-07 BMatP= 1.20D-06
 IDIUse=1 WtCom= 1.00D+00 WtEn= 0.00D+00
 Coeff-Com: -0.963D-04-0.858D-04-0.409D-03 0.469D-03 0.270D-01 0.709D-01
 Coeff-Com:  0.411D+00 0.491D+00
 Coeff:     -0.963D-04-0.858D-04-0.409D-03 0.469D-03 0.270D-01 0.709D-01
 Coeff:      0.411D+00 0.491D+00
 Gap=     0.119 Goal=   None    Shift=    0.000
 RMSDP=5.24D-06 MaxDP=1.48D-04 DE=-8.29D-07 OVMax= 3.63D-04

 Initial convergence to 1.0D-05 achieved.  Increase integral accuracy.
 Cycle   9  Pass 1  IDiag  1:
 E= -425.155900056099     Delta-E=       -0.000001182523 Rises=F Damp=F
 DIIS: error= 1.77D-05 at cycle   1 NSaved=   1.
 NSaved= 1 IEnMin= 1 EnMin= -425.155900056099     IErMin= 1 ErrMin= 1.77D-05
 ErrMax= 1.77D-05  0.00D+00 EMaxC= 1.00D-01 BMatC= 6.20D-08 BMatP= 6.20D-08
 IDIUse=1 WtCom= 1.00D+00 WtEn= 0.00D+00
 Coeff-Com:  0.100D+01
 Coeff:      0.100D+01
 Gap=     0.119 Goal=   None    Shift=    0.000
 RMSDP=5.24D-06 MaxDP=1.48D-04 DE=-1.18D-06 OVMax= 1.74D-04

 Cycle  10  Pass 1  IDiag  1:
 RMSU=  1.13D-05    CP:  1.00D+00
 E= -425.155900019736     Delta-E=        0.000000036363 Rises=F Damp=F
 DIIS: error= 2.75D-05 at cycle   2 NSaved=   2.
 NSaved= 2 IEnMin= 1 EnMin= -425.155900056099     IErMin= 1 ErrMin= 1.77D-05
 ErrMax= 2.75D-05  0.00D+00 EMaxC= 1.00D-01 BMatC= 7.40D-08 BMatP= 6.20D-08
 IDIUse=1 WtCom= 1.00D+00 WtEn= 0.00D+00
 Coeff-Com:  0.528D+00 0.472D+00
 Coeff:      0.528D+00 0.472D+00
 Gap=     0.119 Goal=   None    Shift=    0.000
 RMSDP=2.60D-06 MaxDP=6.21D-05 DE= 3.64D-08 OVMax= 1.77D-04

 Cycle  11  Pass 1  IDiag  1:
 RMSU=  2.50D-06    CP:  1.00D+00  9.36D-01
 E= -425.155900091033     Delta-E=       -0.000000071297 Rises=F Damp=F
 DIIS: error= 1.39D-05 at cycle   3 NSaved=   3.
 NSaved= 3 IEnMin= 3 EnMin= -425.155900091033     IErMin= 3 ErrMin= 1.39D-05
 ErrMax= 1.39D-05  0.00D+00 EMaxC= 1.00D-01 BMatC= 1.46D-08 BMatP= 6.20D-08
 IDIUse=1 WtCom= 1.00D+00 WtEn= 0.00D+00
 Coeff-Com:  0.435D-01 0.304D+00 0.653D+00
 Coeff:      0.435D-01 0.304D+00 0.653D+00
 Gap=     0.119 Goal=   None    Shift=    0.000
 RMSDP=1.01D-06 MaxDP=1.95D-05 DE=-7.13D-08 OVMax= 7.18D-05

 Cycle  12  Pass 1  IDiag  1:
 RMSU=  4.62D-07    CP:  1.00D+00  9.68D-01  6.72D-01
 E= -425.155900107436     Delta-E=       -0.000000016403 Rises=F Damp=F
 DIIS: error= 2.82D-06 at cycle   4 NSaved=   4.
 NSaved= 4 IEnMin= 4 EnMin= -425.155900107436     IErMin= 4 ErrMin= 2.82D-06
 ErrMax= 2.82D-06  0.00D+00 EMaxC= 1.00D-01 BMatC= 1.74D-09 BMatP= 1.46D-08
 IDIUse=1 WtCom= 1.00D+00 WtEn= 0.00D+00
 Coeff-Com: -0.277D-02 0.166D+00 0.411D+00 0.426D+00
 Coeff:     -0.277D-02 0.166D+00 0.411D+00 0.426D+00
 Gap=     0.119 Goal=   None    Shift=    0.000
 RMSDP=2.98D-07 MaxDP=6.95D-06 DE=-1.64D-08 OVMax= 2.02D-05

 Cycle  13  Pass 1  IDiag  1:
 RMSU=  1.06D-07    CP:  1.00D+00  9.67D-01  7.07D-01  4.31D-01
 E= -425.155900109210     Delta-E=       -0.000000001774 Rises=F Damp=F
 DIIS: error= 1.27D-06 at cycle   5 NSaved=   5.
 NSaved= 5 IEnMin= 5 EnMin= -425.155900109210     IErMin= 5 ErrMin= 1.27D-06
 ErrMax= 1.27D-06  0.00D+00 EMaxC= 1.00D-01 BMatC= 7.37D-11 BMatP= 1.74D-09
 IDIUse=1 WtCom= 1.00D+00 WtEn= 0.00D+00
 Coeff-Com: -0.266D-02 0.992D-01 0.247D+00 0.282D+00 0.375D+00
 Coeff:     -0.266D-02 0.992D-01 0.247D+00 0.282D+00 0.375D+00
 Gap=     0.119 Goal=   None    Shift=    0.000
 RMSDP=6.90D-08 MaxDP=1.18D-06 DE=-1.77D-09 OVMax= 6.49D-06

 Cycle  14  Pass 1  IDiag  1:
 RMSU=  3.76D-08    CP:  1.00D+00  9.67D-01  7.06D-01  4.64D-01  4.76D-01
 E= -425.155900109302     Delta-E=       -0.000000000092 Rises=F Damp=F
 DIIS: error= 2.90D-07 at cycle   6 NSaved=   6.
 NSaved= 6 IEnMin= 6 EnMin= -425.155900109302     IErMin= 6 ErrMin= 2.90D-07
 ErrMax= 2.90D-07  0.00D+00 EMaxC= 1.00D-01 BMatC= 7.00D-12 BMatP= 7.37D-11
 IDIUse=1 WtCom= 1.00D+00 WtEn= 0.00D+00
 Coeff-Com: -0.162D-02 0.441D-01 0.109D+00 0.133D+00 0.246D+00 0.469D+00
 Coeff:     -0.162D-02 0.441D-01 0.109D+00 0.133D+00 0.246D+00 0.469D+00
 Gap=     0.119 Goal=   None    Shift=    0.000
 RMSDP=2.06D-08 MaxDP=5.51D-07 DE=-9.24D-11 OVMax= 1.69D-06

 Cycle  15  Pass 1  IDiag  1:
 RMSU=  1.30D-08    CP:  1.00D+00  9.67D-01  7.05D-01  4.65D-01  5.69D-01
                    CP:  6.75D-01
 E= -425.155900109310     Delta-E=       -0.000000000007 Rises=F Damp=F
 DIIS: error= 7.88D-08 at cycle   7 NSaved=   7.
 NSaved= 7 IEnMin= 7 EnMin= -425.155900109310     IErMin= 7 ErrMin= 7.88D-08
 ErrMax= 7.88D-08  0.00D+00 EMaxC= 1.00D-01 BMatC= 5.67D-13 BMatP= 7.00D-12
 IDIUse=1 WtCom= 1.00D+00 WtEn= 0.00D+00
 Coeff-Com: -0.426D-03 0.859D-02 0.205D-01 0.299D-01 0.800D-01 0.252D+00
 Coeff-Com:  0.609D+00
 Coeff:     -0.426D-03 0.859D-02 0.205D-01 0.299D-01 0.800D-01 0.252D+00
 Coeff:      0.609D+00
 Gap=     0.119 Goal=   None    Shift=    0.000
 RMSDP=6.67D-09 MaxDP=1.93D-07 DE=-7.28D-12 OVMax= 7.50D-07

 SCF Done:  E(RB3LYP) =  -425.155900109     A.U. after   15 cycles
            NFock= 15  Conv=0.67D-08     -V/T= 2.0096
 KE= 4.211255343156D+02 PE=-2.068492442615D+03 EE= 6.799495395255D+02
 Leave Link  502 at Fri May 28 14:01:39 2021, MaxMem=  1342177280 cpu:              64.0 elap:               8.0
 (Enter /home/wangzhe/g16/l801.exe)
 DoSCS=F DFT=T ScalE2(SS,OS)=  1.000000  1.000000
 Range of M.O.s used for correlation:     1   185
 NBasis=   185 NAE=    38 NBE=    38 NFC=     0 NFV=     0
 NROrb=    185 NOA=    38 NOB=    38 NVA=   147 NVB=   147

 **** Warning!!: The largest alpha MO coefficient is  0.12085071D+02

 Leave Link  801 at Fri May 28 14:01:39 2021, MaxMem=  1342177280 cpu:               0.1 elap:               0.0
 (Enter /home/wangzhe/g16/l1002.exe)
 IGridI=           0 IGrid123=000 TLFunc=F ICheap=1.
 Minotr:  Closed shell wavefunction.
          Direct CPHF calculation.
          Differentiating once with respect to magnetic field using GIAOs.
          Electric field/nuclear overlap derivatives assumed to be zero.
          Requested convergence is 1.0D-08 RMS, and 1.0D-07 maximum.
          Secondary convergence is 1.0D-12 RMS, and 1.0D-12 maximum.
          NewPWx=T KeepS1=F KeepF1=F KeepIn=T MapXYZ=F SortEE=F KeepMc=T.
 ReadGW:  IGet=1 IStart=        2705 Next=        2705 LGW=           0.
 SetAtRh:  ITypeU=  23 NETotI=       0 ICharg=  0 NETot=       0.
 StAtR1:  I=    1 I1=    1 IA=  6 C=   6.0 OKShel=TTT
                                                  SSP
                                                  222
 StAtR1:  I=    2 I1=    2 IA=  1 C=   1.0 OKShel=T
                                                  S
                                                  1
 StAtR1:  I=    3 I1=    3 IA=  6 C=   6.0 OKShel=TTT
                                                  SSP
                                                  222
 StAtR1:  I=    4 I1=    4 IA=  1 C=   1.0 OKShel=T
                                                  S
                                                  1
 StAtR1:  I=    5 I1=    5 IA=  6 C=   6.0 OKShel=TTT
                                                  SSP
                                                  222
 StAtR1:  I=    6 I1=    6 IA=  1 C=   1.0 OKShel=T
                                                  S
                                                  1
 StAtR1:  I=    7 I1=    7 IA=  6 C=   6.0 OKShel=TTT
                                                  SSP
                                                  222
 StAtR1:  I=    8 I1=    8 IA=  6 C=   6.0 OKShel=TTT
                                                  SSP
                                                  222
 StAtR1:  I=    9 I1=    9 IA=  1 C=   1.0 OKShel=T
                                                  S
                                                  1
 StAtR1:  I=   10 I1=   10 IA=  6 C=   6.0 OKShel=TTT
                                                  SSP
                                                  222
 StAtR1:  I=   11 I1=   11 IA=  1 C=   1.0 OKShel=T
                                                  S
                                                  1
 StAtR1:  I=   12 I1=   12 IA=  6 C=   6.0 OKShel=TTT
                                                  SSP
                                                  222
 StAtR1:  I=   13 I1=   13 IA=  6 C=   6.0 OKShel=TTT
                                                  SSP
                                                  222
 StAtR1:  I=   14 I1=   14 IA=  6 C=   6.0 OKShel=TTT
                                                  SSP
                                                  222
 StAtR1:  I=   15 I1=   15 IA=  1 C=   1.0 OKShel=T
                                                  S
                                                  1
 StAtR1:  I=   16 I1=   16 IA=  6 C=   6.0 OKShel=TTT
                                                  SSP
                                                  222
 StAtR1:  I=   17 I1=   17 IA=  1 C=   1.0 OKShel=T
                                                  S
                                                  1
 StAtR1:  I=   18 I1=   18 IA=  6 C=   6.0 OKShel=TTT
                                                  SSP
                                                  222
 StAtR1:  I=   19 I1=   19 IA=  1 C=   1.0 OKShel=T
                                                  S
                                                  1
 StAtR1:  I=   20 I1=   20 IA=  1 C=   1.0 OKShel=T
                                                  S
                                                  1
 StAtR1:  I=   21 I1=   21 IA=  1 C=   1.0 OKShel=T
                                                  S
                                                  1
          I=    1 IA=  6 I1=    1 NAtG= 0 NE=   6.000 C=   0.000 Err=-6.00D+00
          I=    2 IA=  1 I1=    2 NAtG= 0 NE=   1.000 C=   0.000 Err=-1.00D+00
          I=    3 IA=  6 I1=    3 NAtG= 0 NE=   6.000 C=   0.000 Err=-6.00D+00
          I=    4 IA=  1 I1=    4 NAtG= 0 NE=   1.000 C=   0.000 Err=-1.00D+00
          I=    5 IA=  6 I1=    5 NAtG= 0 NE=   6.000 C=   0.000 Err=-6.00D+00
          I=    6 IA=  1 I1=    6 NAtG= 0 NE=   1.000 C=   0.000 Err=-1.00D+00
          I=    7 IA=  6 I1=    7 NAtG= 0 NE=   6.000 C=   0.000 Err=-6.00D+00
          I=    8 IA=  6 I1=    8 NAtG= 0 NE=   6.000 C=   0.000 Err=-6.00D+00
          I=    9 IA=  1 I1=    9 NAtG= 0 NE=   1.000 C=   0.000 Err=-1.00D+00
          I=   10 IA=  6 I1=   10 NAtG= 0 NE=   6.000 C=   0.000 Err=-6.00D+00
          I=   11 IA=  1 I1=   11 NAtG= 0 NE=   1.000 C=   0.000 Err=-1.00D+00
          I=   12 IA=  6 I1=   12 NAtG= 0 NE=   6.000 C=   0.000 Err=-6.00D+00
          I=   13 IA=  6 I1=   13 NAtG= 0 NE=   6.000 C=   0.000 Err=-6.00D+00
          I=   14 IA=  6 I1=   14 NAtG= 0 NE=   6.000 C=   0.000 Err=-6.00D+00
          I=   15 IA=  1 I1=   15 NAtG= 0 NE=   1.000 C=   0.000 Err=-1.00D+00
          I=   16 IA=  6 I1=   16 NAtG= 0 NE=   6.000 C=   0.000 Err=-6.00D+00
          I=   17 IA=  1 I1=   17 NAtG= 0 NE=   1.000 C=   0.000 Err=-1.00D+00
          I=   18 IA=  6 I1=   18 NAtG= 0 NE=   6.000 C=   0.000 Err=-6.00D+00
          I=   19 IA=  1 I1=   19 NAtG= 0 NE=   1.000 C=   0.000 Err=-1.00D+00
          I=   20 IA=  1 I1=   20 NAtG= 0 NE=   1.000 C=   0.000 Err=-1.00D+00
          I=   21 IA=  1 I1=   21 NAtG= 0 NE=   1.000 C=   0.000 Err=-1.00D+00
 Pruned (  50, 194) grid will be used in numerical quadrature.
 Atom   1 batch    1 overlaps  21 atoms and   43 shells. NGrid=         6
 Pruned (  50, 194) grid will be used in numerical quadrature.
 Atom  13 batch    1 overlaps  21 atoms and   55 shells. NGrid=         6
 Atom   1 batch    2 overlaps  21 atoms and   43 shells. NGrid=         6
 Atom  13 batch    2 overlaps  21 atoms and   55 shells. NGrid=         6
 Atom   1 batch    3 overlaps  21 atoms and   43 shells. NGrid=         6
 Atom  13 batch    3 overlaps  21 atoms and   55 shells. NGrid=         6
 Atom   1 batch    4 overlaps  21 atoms and   43 shells. NGrid=         6
 Atom  13 batch    4 overlaps  21 atoms and   55 shells. NGrid=         6
 Atom   1 batch    5 overlaps  21 atoms and   43 shells. NGrid=         6
 Atom  13 batch    5 overlaps  21 atoms and   55 shells. NGrid=         6
 Atom   1 batch    6 overlaps  21 atoms and   43 shells. NGrid=         6
 Atom  13 batch    6 overlaps  21 atoms and   55 shells. NGrid=         6
 Atom   1 batch    7 overlaps  21 atoms and   43 shells. NGrid=         6
 Atom  13 batch    7 overlaps  21 atoms and   55 shells. NGrid=         6
 Atom   1 batch    8 overlaps  21 atoms and   43 shells. NGrid=         6
 Atom  13 batch    8 overlaps  21 atoms and   55 shells. NGrid=         6
 Atom   1 batch    9 overlaps  21 atoms and   43 shells. NGrid=         6
 Atom  13 batch    9 overlaps  21 atoms and   55 shells. NGrid=         6
 Atom   1 batch   10 overlaps  21 atoms and   43 shells. NGrid=         6
 Atom  13 batch   10 overlaps  21 atoms and   55 shells. NGrid=         6
 Atom   1 batch   11 overlaps  21 atoms and   43 shells. NGrid=         6
 Atom  13 batch   11 overlaps  21 atoms and   55 shells. NGrid=         6
 Atom   1 batch   12 overlaps  21 atoms and   43 shells. NGrid=         6
 Atom  13 batch   12 overlaps  21 atoms and   55 shells. NGrid=         6
 Atom   1 batch   13 overlaps  21 atoms and   43 shells. NGrid=         6
 Atom  13 batch   13 overlaps  21 atoms and   55 shells. NGrid=         6
 Atom   1 batch   14 overlaps  21 atoms and   43 shells. NGrid=         6
 Pruned (  50, 194) grid will be used in numerical quadrature.
 Atom  13 batch   14 overlaps  21 atoms and   55 shells. NGrid=         6
 Atom   1 batch   15 overlaps  21 atoms and   43 shells. NGrid=        38
 Atom  10 batch    1 overlaps  21 atoms and   45 shells. NGrid=         6
 Atom  13 batch   15 overlaps  21 atoms and   55 shells. NGrid=        38
 Atom  10 batch    2 overlaps  21 atoms and   45 shells. NGrid=         6
 Atom   1 batch   16 overlaps  21 atoms and   44 shells. NGrid=        38
 Atom  10 batch    3 overlaps  21 atoms and   45 shells. NGrid=         6
 Atom  10 batch    4 overlaps  21 atoms and   45 shells. NGrid=         6
 Atom  13 batch   16 overlaps  21 atoms and   55 shells. NGrid=        38
 Atom   1 batch   17 overlaps  21 atoms and   45 shells. NGrid=        38
 Atom  10 batch    5 overlaps  21 atoms and   45 shells. NGrid=         6
 Atom  10 batch    6 overlaps  21 atoms and   45 shells. NGrid=         6
 Atom  13 batch   17 overlaps  21 atoms and   55 shells. NGrid=        38
 Atom  10 batch    7 overlaps  21 atoms and   45 shells. NGrid=         6
 Atom   1 batch   18 overlaps  21 atoms and   45 shells. NGrid=        38
 Atom  10 batch    8 overlaps  21 atoms and   45 shells. NGrid=         6
 Atom  10 batch    9 overlaps  21 atoms and   45 shells. NGrid=         6
 Atom  13 batch   18 overlaps  21 atoms and   55 shells. NGrid=        38
 Atom  10 batch   10 overlaps  21 atoms and   45 shells. NGrid=         6
 Atom   1 batch   19 overlaps  21 atoms and   45 shells. NGrid=        38
 Atom  10 batch   11 overlaps  21 atoms and   45 shells. NGrid=         6
 Atom  10 batch   12 overlaps  21 atoms and   45 shells. NGrid=         6
 Atom  13 batch   19 overlaps  21 atoms and   55 shells. NGrid=        38
 Atom  10 batch   13 overlaps  21 atoms and   47 shells. NGrid=         6
 Atom   1 batch   20 overlaps  21 atoms and   45 shells. NGrid=        38
 Atom  13 batch   20 overlaps  21 atoms and   56 shells. NGrid=        38
 Pruned (  50, 194) grid will be used in numerical quadrature.
 Atom   1 batch   21 overlaps  21 atoms and   45 shells. NGrid=        38
 Atom  19 batch    1 overlaps  21 atoms and   39 shells. NGrid=         6
 Atom  13 batch   21 overlaps  21 atoms and   57 shells. NGrid=        38
 Atom  19 batch    2 overlaps  21 atoms and   39 shells. NGrid=         6
 Atom   1 batch   22 overlaps  21 atoms and   45 shells. NGrid=        86
 Atom  10 batch   14 overlaps  21 atoms and   47 shells. NGrid=         6
 Atom  19 batch    3 overlaps  21 atoms and   39 shells. NGrid=         6
 Atom  10 batch   15 overlaps  21 atoms and   47 shells. NGrid=        38
 Atom  19 batch    4 overlaps  21 atoms and   39 shells. NGrid=         6
 Atom  13 batch   22 overlaps  21 atoms and   57 shells. NGrid=        86
 Atom  19 batch    5 overlaps  21 atoms and   39 shells. NGrid=         6
 Atom  19 batch    6 overlaps  21 atoms and   39 shells. NGrid=         6
 Atom  19 batch    7 overlaps  21 atoms and   39 shells. NGrid=         6
 Atom  10 batch   16 overlaps  21 atoms and   47 shells. NGrid=        38
 Atom  19 batch    8 overlaps  21 atoms and   39 shells. NGrid=         6
 Atom  19 batch    9 overlaps  21 atoms and   39 shells. NGrid=         6
 Atom  19 batch   10 overlaps  21 atoms and   39 shells. NGrid=         6
 Atom  10 batch   17 overlaps  21 atoms and   47 shells. NGrid=        38
 Atom  19 batch   11 overlaps  21 atoms and   39 shells. NGrid=         6
 Atom   1 batch   23 overlaps  21 atoms and   45 shells. NGrid=        86
 Atom  19 batch   12 overlaps  21 atoms and   39 shells. NGrid=         6
 Atom  19 batch   13 overlaps  21 atoms and   39 shells. NGrid=         6
 Atom  10 batch   18 overlaps  21 atoms and   47 shells. NGrid=        38
 Atom  19 batch   14 overlaps  21 atoms and   40 shells. NGrid=         6
 Atom  19 batch   15 overlaps  21 atoms and   40 shells. NGrid=         6
 Atom  10 batch   19 overlaps  21 atoms and   47 shells. NGrid=        38
 Atom  13 batch   23 overlaps  21 atoms and   58 shells. NGrid=        86
 Atom  10 batch   20 overlaps  21 atoms and   47 shells. NGrid=        38
 Atom   1 batch   24 overlaps  21 atoms and   45 shells. NGrid=        86
 Atom  10 batch   21 overlaps  21 atoms and   47 shells. NGrid=        38
 Atom  10 batch   22 overlaps  21 atoms and   49 shells. NGrid=        86
 Atom  19 batch   16 overlaps  21 atoms and   40 shells. NGrid=         6
 Atom  13 batch   24 overlaps  21 atoms and   59 shells. NGrid=        86
 Atom  19 batch   17 overlaps  21 atoms and   40 shells. NGrid=        38
 Atom   1 batch   25 overlaps  21 atoms and   45 shells. NGrid=       194
 Atom  19 batch   18 overlaps  21 atoms and   40 shells. NGrid=        38
 Atom  19 batch   19 overlaps  21 atoms and   40 shells. NGrid=        38
 Atom  10 batch   23 overlaps  21 atoms and   51 shells. NGrid=        86
 Atom  19 batch   20 overlaps  21 atoms and   40 shells. NGrid=        38
 Atom  13 batch   25 overlaps  21 atoms and   59 shells. NGrid=       194
 Atom  19 batch   21 overlaps  21 atoms and   40 shells. NGrid=        38
 Atom  19 batch   22 overlaps  21 atoms and   41 shells. NGrid=        86
 Pruned (  50, 194) grid will be used in numerical quadrature.
 Atom  10 batch   24 overlaps  21 atoms and   51 shells. NGrid=        86
 Atom  16 batch    1 overlaps  21 atoms and   51 shells. NGrid=         6
 Atom  16 batch    2 overlaps  21 atoms and   51 shells. NGrid=         6
 Atom  16 batch    3 overlaps  21 atoms and   51 shells. NGrid=         6
 Atom   1 batch   26 overlaps  21 atoms and   47 shells. NGrid=       194
 Atom  19 batch   23 overlaps  21 atoms and   41 shells. NGrid=        86
 Atom  16 batch    4 overlaps  21 atoms and   51 shells. NGrid=         6
 Atom  16 batch    5 overlaps  21 atoms and   51 shells. NGrid=         6
 Atom  16 batch    6 overlaps  21 atoms and   51 shells. NGrid=         6
 Atom  16 batch    7 overlaps  21 atoms and   51 shells. NGrid=         6
 Atom  10 batch   25 overlaps  21 atoms and   51 shells. NGrid=       194
 Atom  16 batch    8 overlaps  21 atoms and   51 shells. NGrid=         6
 Atom  16 batch    9 overlaps  21 atoms and   51 shells. NGrid=         6
 Atom  16 batch   10 overlaps  21 atoms and   51 shells. NGrid=         6
 Atom  16 batch   11 overlaps  21 atoms and   51 shells. NGrid=         6
 Atom  19 batch   24 overlaps  21 atoms and   41 shells. NGrid=        86
 Atom  16 batch   12 overlaps  21 atoms and   51 shells. NGrid=         6
 Atom  16 batch   13 overlaps  21 atoms and   51 shells. NGrid=         6
 Atom  16 batch   14 overlaps  21 atoms and   51 shells. NGrid=         6
 Atom  13 batch   26 overlaps  21 atoms and   60 shells. NGrid=       194
 Pruned (  50, 194) grid will be used in numerical quadrature.
 Atom   7 batch    1 overlaps  21 atoms and   52 shells. NGrid=         6
 Atom  19 batch   25 overlaps  21 atoms and   42 shells. NGrid=        86
 Atom   7 batch    2 overlaps  21 atoms and   52 shells. NGrid=         6
 Atom  16 batch   15 overlaps  21 atoms and   51 shells. NGrid=        38
 Atom   7 batch    3 overlaps  21 atoms and   52 shells. NGrid=         6
 Atom   1 batch   27 overlaps  21 atoms and   50 shells. NGrid=       194
 Atom   7 batch    4 overlaps  21 atoms and   52 shells. NGrid=         6
 Atom   7 batch    5 overlaps  21 atoms and   52 shells. NGrid=         6
 Atom   7 batch    6 overlaps  21 atoms and   52 shells. NGrid=         6
 Atom  16 batch   16 overlaps  21 atoms and   51 shells. NGrid=        38
 Atom   7 batch    7 overlaps  21 atoms and   52 shells. NGrid=         6
 Atom   7 batch    8 overlaps  21 atoms and   52 shells. NGrid=         6
 Atom  10 batch   26 overlaps  21 atoms and   51 shells. NGrid=       194
 Atom   7 batch    9 overlaps  21 atoms and   52 shells. NGrid=         6
 Atom  16 batch   17 overlaps  21 atoms and   51 shells. NGrid=        38
 Atom  19 batch   26 overlaps  21 atoms and   43 shells. NGrid=       194
 Atom   7 batch   10 overlaps  21 atoms and   52 shells. NGrid=         6
 Atom   7 batch   11 overlaps  21 atoms and   52 shells. NGrid=         6
 Atom  16 batch   18 overlaps  21 atoms and   51 shells. NGrid=        38
 Atom   7 batch   12 overlaps  21 atoms and   52 shells. NGrid=         6
 Atom   7 batch   13 overlaps  21 atoms and   52 shells. NGrid=         6
 Atom   7 batch   14 overlaps  21 atoms and   52 shells. NGrid=         6
 Atom  16 batch   19 overlaps  21 atoms and   52 shells. NGrid=        38
 Atom   7 batch   15 overlaps  21 atoms and   52 shells. NGrid=        38
 Pruned (  50, 194) grid will be used in numerical quadrature.
 Atom  13 batch   27 overlaps  21 atoms and   62 shells. NGrid=       194
 Atom  16 batch   20 overlaps  21 atoms and   52 shells. NGrid=        38
 Atom   4 batch    1 overlaps  21 atoms and   36 shells. NGrid=         6
 Atom   7 batch   16 overlaps  21 atoms and   52 shells. NGrid=        38
 Atom   4 batch    2 overlaps  21 atoms and   36 shells. NGrid=         6
 Atom  16 batch   21 overlaps  21 atoms and   54 shells. NGrid=        38
 Atom   7 batch   17 overlaps  21 atoms and   52 shells. NGrid=        38
 Atom   4 batch    3 overlaps  21 atoms and   36 shells. NGrid=         6
 Atom   4 batch    4 overlaps  21 atoms and   36 shells. NGrid=         6
 Atom   1 batch   28 overlaps  21 atoms and   50 shells. NGrid=       194
 Atom   4 batch    5 overlaps  21 atoms and   36 shells. NGrid=         6
 Atom   7 batch   18 overlaps  21 atoms and   52 shells. NGrid=        38
 Atom   4 batch    6 overlaps  21 atoms and   36 shells. NGrid=         6
 Atom  16 batch   22 overlaps  21 atoms and   54 shells. NGrid=        86
 Atom   4 batch    7 overlaps  21 atoms and   36 shells. NGrid=         6
 Atom   4 batch    8 overlaps  21 atoms and   36 shells. NGrid=         6
 Atom   7 batch   19 overlaps  21 atoms and   52 shells. NGrid=        38
 Atom   4 batch    9 overlaps  21 atoms and   36 shells. NGrid=         6
 Atom  10 batch   27 overlaps  21 atoms and   53 shells. NGrid=       194
 Atom  19 batch   27 overlaps  21 atoms and   44 shells. NGrid=       194
 Atom   4 batch   10 overlaps  21 atoms and   36 shells. NGrid=         6
 Atom   4 batch   11 overlaps  21 atoms and   36 shells. NGrid=         6
 Atom   7 batch   20 overlaps  21 atoms and   53 shells. NGrid=        38
 Atom   4 batch   12 overlaps  21 atoms and   36 shells. NGrid=         6
 Atom   4 batch   13 overlaps  21 atoms and   36 shells. NGrid=         6
 Atom   4 batch   14 overlaps  21 atoms and   36 shells. NGrid=         6
 Atom   7 batch   21 overlaps  21 atoms and   56 shells. NGrid=        38
 Atom   4 batch   15 overlaps  21 atoms and   36 shells. NGrid=         6
 Atom  16 batch   23 overlaps  21 atoms and   54 shells. NGrid=        86
 Atom   4 batch   16 overlaps  21 atoms and   36 shells. NGrid=         6
 Atom   4 batch   17 overlaps  21 atoms and   36 shells. NGrid=        38
 Atom   7 batch   22 overlaps  21 atoms and   56 shells. NGrid=        86
 Atom  13 batch   28 overlaps  21 atoms and   62 shells. NGrid=       194
 Atom   4 batch   18 overlaps  21 atoms and   36 shells. NGrid=        38
 Atom   4 batch   19 overlaps  21 atoms and   37 shells. NGrid=        38
 Atom   1 batch   29 overlaps  21 atoms and   51 shells. NGrid=       194
 Atom   4 batch   20 overlaps  21 atoms and   37 shells. NGrid=        38
 Atom  16 batch   24 overlaps  21 atoms and   54 shells. NGrid=        86
 Atom   4 batch   21 overlaps  21 atoms and   41 shells. NGrid=        38
 Atom   7 batch   23 overlaps  21 atoms and   57 shells. NGrid=        86
 Atom  19 batch   28 overlaps  21 atoms and   44 shells. NGrid=       194
 Atom  10 batch   28 overlaps  21 atoms and   53 shells. NGrid=       194
 Atom   4 batch   22 overlaps  21 atoms and   41 shells. NGrid=        86
 Atom  16 batch   25 overlaps  21 atoms and   54 shells. NGrid=       194
 Atom   4 batch   23 overlaps  21 atoms and   41 shells. NGrid=        86
 Atom   7 batch   24 overlaps  21 atoms and   59 shells. NGrid=        86
 Atom   4 batch   24 overlaps  21 atoms and   41 shells. NGrid=        86
 Atom  13 batch   29 overlaps  21 atoms and   62 shells. NGrid=       194
 Atom   1 batch   30 overlaps  21 atoms and   54 shells. NGrid=       194
 Atom   7 batch   25 overlaps  21 atoms and   59 shells. NGrid=       194
 Atom   4 batch   25 overlaps  21 atoms and   43 shells. NGrid=        86
 Atom  19 batch   29 overlaps  21 atoms and   45 shells. NGrid=       194
 Atom  10 batch   29 overlaps  21 atoms and   55 shells. NGrid=       194
 Atom   4 batch   26 overlaps  21 atoms and   43 shells. NGrid=       194
 Atom  16 batch   26 overlaps  21 atoms and   57 shells. NGrid=       194
 Atom  13 batch   30 overlaps  21 atoms and   64 shells. NGrid=       194
 Atom   1 batch   31 overlaps  21 atoms and   55 shells. NGrid=       194
 Atom   4 batch   27 overlaps  21 atoms and   43 shells. NGrid=       194
 Atom   7 batch   26 overlaps  21 atoms and   60 shells. NGrid=       194
 Atom  19 batch   30 overlaps  21 atoms and   46 shells. NGrid=       194
 Atom  10 batch   30 overlaps  21 atoms and   55 shells. NGrid=       194
 Atom  16 batch   27 overlaps  21 atoms and   59 shells. NGrid=       194
 Atom   4 batch   28 overlaps  21 atoms and   43 shells. NGrid=       194
 Atom   1 batch   32 overlaps  21 atoms and   58 shells. NGrid=       194
 Atom  13 batch   31 overlaps  21 atoms and   64 shells. NGrid=       194
 Atom   7 batch   27 overlaps  21 atoms and   61 shells. NGrid=       194
 Atom  19 batch   31 overlaps  21 atoms and   48 shells. NGrid=       194
 Atom  10 batch   31 overlaps  21 atoms and   56 shells. NGrid=       194
 Atom   4 batch   29 overlaps  21 atoms and   45 shells. NGrid=       194
 Atom  16 batch   28 overlaps  21 atoms and   59 shells. NGrid=       194
 Atom   1 batch   33 overlaps  21 atoms and   57 shells. NGrid=       194
 Atom   4 batch   30 overlaps  21 atoms and   45 shells. NGrid=       194
 Atom   7 batch   28 overlaps  21 atoms and   61 shells. NGrid=       194
 Atom  13 batch   32 overlaps  21 atoms and   64 shells. NGrid=       194
 Atom  19 batch   32 overlaps  21 atoms and   51 shells. NGrid=       194
 Atom  10 batch   32 overlaps  21 atoms and   60 shells. NGrid=       194
 Atom  16 batch   29 overlaps  21 atoms and   59 shells. NGrid=       194
 Atom   4 batch   31 overlaps  21 atoms and   46 shells. NGrid=       194
 Atom   1 batch   34 overlaps  21 atoms and   59 shells. NGrid=        86
 Atom   7 batch   29 overlaps  21 atoms and   61 shells. NGrid=       194
 Atom  19 batch   33 overlaps  21 atoms and   53 shells. NGrid=       194
 Atom  13 batch   33 overlaps  21 atoms and   63 shells. NGrid=       194
 Atom  10 batch   33 overlaps  21 atoms and   59 shells. NGrid=       194
 Atom   1 batch   35 overlaps  21 atoms and   61 shells. NGrid=        86
 Atom  16 batch   30 overlaps  21 atoms and   62 shells. NGrid=       194
 Atom   4 batch   32 overlaps  21 atoms and   48 shells. NGrid=       194
 Atom   1 batch   36 overlaps  21 atoms and   61 shells. NGrid=        86
 Atom   7 batch   30 overlaps  21 atoms and   63 shells. NGrid=       194
 Atom   1 batch   37 overlaps  21 atoms and   57 shells. NGrid=        86
 Atom  10 batch   34 overlaps  21 atoms and   60 shells. NGrid=        86
 Atom  19 batch   34 overlaps  21 atoms and   54 shells. NGrid=       194
 Atom   4 batch   33 overlaps  21 atoms and   51 shells. NGrid=       194
 Atom  13 batch   34 overlaps  21 atoms and   63 shells. NGrid=        86
 Atom   1 batch   38 overlaps  21 atoms and   52 shells. NGrid=        86
 Atom  16 batch   31 overlaps  21 atoms and   62 shells. NGrid=       194
 Atom  10 batch   35 overlaps  21 atoms and   62 shells. NGrid=        86
 Atom  13 batch   35 overlaps  21 atoms and   63 shells. NGrid=        86
 Atom   1 batch   39 overlaps  21 atoms and   44 shells. NGrid=        86
 Atom   7 batch   31 overlaps  21 atoms and   63 shells. NGrid=       194
 Atom   1 batch   40 overlaps  21 atoms and   30 shells. NGrid=        86
 Atom  10 batch   36 overlaps  21 atoms and   61 shells. NGrid=        86
 Atom  13 batch   36 overlaps  21 atoms and   60 shells. NGrid=        86
 Atom   4 batch   34 overlaps  21 atoms and   52 shells. NGrid=       194
 Atom  19 batch   35 overlaps  21 atoms and   58 shells. NGrid=        86
 Atom   1 batch   41 overlaps  21 atoms and    9 shells. NGrid=        86
 Atom  13 batch   37 overlaps  21 atoms and   53 shells. NGrid=        86
 Atom  16 batch   32 overlaps  21 atoms and   64 shells. NGrid=       194
 Atom  10 batch   37 overlaps  21 atoms and   56 shells. NGrid=        86
 Atom   1 batch   42 overlaps  21 atoms and    0 shells. NGrid=        86
 Pruned (  50, 194) grid will be used in numerical quadrature.
 Atom   2 batch    1 overlaps  21 atoms and   36 shells. NGrid=         6
 Atom  13 batch   38 overlaps  21 atoms and   48 shells. NGrid=        86
 Atom   2 batch    2 overlaps  21 atoms and   36 shells. NGrid=         6
 Atom   2 batch    3 overlaps  21 atoms and   36 shells. NGrid=         6
 Atom  19 batch   36 overlaps  21 atoms and   59 shells. NGrid=        86
 Atom  10 batch   38 overlaps  21 atoms and   51 shells. NGrid=        86
 Atom   2 batch    4 overlaps  21 atoms and   36 shells. NGrid=         6
 Atom   2 batch    5 overlaps  21 atoms and   36 shells. NGrid=         6
 Atom   2 batch    6 overlaps  21 atoms and   36 shells. NGrid=         6
 Atom   2 batch    7 overlaps  21 atoms and   36 shells. NGrid=         6
 Atom   7 batch   32 overlaps  21 atoms and   63 shells. NGrid=       194
 Atom   2 batch    8 overlaps  21 atoms and   36 shells. NGrid=         6
 Atom  13 batch   39 overlaps  21 atoms and   37 shells. NGrid=        86
 Atom   2 batch    9 overlaps  21 atoms and   36 shells. NGrid=         6
 Atom   2 batch   10 overlaps  21 atoms and   36 shells. NGrid=         6
 Atom   4 batch   35 overlaps  21 atoms and   55 shells. NGrid=        86
 Atom   2 batch   11 overlaps  21 atoms and   36 shells. NGrid=         6
 Atom  10 batch   39 overlaps  21 atoms and   40 shells. NGrid=        86
 Atom   2 batch   12 overlaps  21 atoms and   36 shells. NGrid=         6
 Atom   2 batch   13 overlaps  21 atoms and   36 shells. NGrid=         6
 Atom  19 batch   37 overlaps  21 atoms and   61 shells. NGrid=        86
 Atom  13 batch   40 overlaps  21 atoms and   20 shells. NGrid=        86
 Atom   2 batch   14 overlaps  21 atoms and   36 shells. NGrid=         6
 Atom   2 batch   15 overlaps  21 atoms and   36 shells. NGrid=         6
 Atom   2 batch   16 overlaps  21 atoms and   37 shells. NGrid=         6
 Atom   2 batch   17 overlaps  21 atoms and   37 shells. NGrid=        38
 Atom  10 batch   40 overlaps  21 atoms and   26 shells. NGrid=        86
 Atom  13 batch   41 overlaps  21 atoms and    3 shells. NGrid=        86
 Atom   2 batch   18 overlaps  21 atoms and   37 shells. NGrid=        38
 Atom  16 batch   33 overlaps  21 atoms and   63 shells. NGrid=       194
 Atom   2 batch   19 overlaps  21 atoms and   37 shells. NGrid=        38
 Atom   4 batch   36 overlaps  21 atoms and   57 shells. NGrid=        86
 Atom  19 batch   38 overlaps  21 atoms and   61 shells. NGrid=        86
 Pruned (  50, 194) grid will be used in numerical quadrature.
 Atom   2 batch   20 overlaps  21 atoms and   37 shells. NGrid=        38
 Atom  14 batch    1 overlaps  21 atoms and   43 shells. NGrid=         6
 Atom   2 batch   21 overlaps  21 atoms and   41 shells. NGrid=        38
 Atom  14 batch    2 overlaps  21 atoms and   43 shells. NGrid=         6
 Atom  10 batch   41 overlaps  21 atoms and   10 shells. NGrid=        86
 Atom  14 batch    3 overlaps  21 atoms and   43 shells. NGrid=         6
 Atom  14 batch    4 overlaps  21 atoms and   43 shells. NGrid=         6
 Atom   2 batch   22 overlaps  21 atoms and   41 shells. NGrid=        86
 Atom  14 batch    5 overlaps  21 atoms and   43 shells. NGrid=         6
 Atom  14 batch    6 overlaps  21 atoms and   44 shells. NGrid=         6
 Atom   7 batch   33 overlaps  21 atoms and   63 shells. NGrid=       194
 Atom  14 batch    7 overlaps  21 atoms and   44 shells. NGrid=         6
 Atom   4 batch   37 overlaps  21 atoms and   60 shells. NGrid=        86
 Atom  19 batch   39 overlaps  21 atoms and   56 shells. NGrid=        86
 Atom  14 batch    8 overlaps  21 atoms and   44 shells. NGrid=         6
 Atom  10 batch   42 overlaps  21 atoms and    0 shells. NGrid=        86
 Pruned (  50, 194) grid will be used in numerical quadrature.
 Atom  14 batch    9 overlaps  21 atoms and   44 shells. NGrid=         6
 Atom  11 batch    1 overlaps  21 atoms and   39 shells. NGrid=         6
 Atom  14 batch   10 overlaps  21 atoms and   44 shells. NGrid=         6
 Atom  14 batch   11 overlaps  21 atoms and   44 shells. NGrid=         6
 Atom  11 batch    2 overlaps  21 atoms and   39 shells. NGrid=         6
 Atom  14 batch   12 overlaps  21 atoms and   44 shells. NGrid=         6
 Atom   2 batch   23 overlaps  21 atoms and   41 shells. NGrid=        86
 Atom  11 batch    3 overlaps  21 atoms and   39 shells. NGrid=         6
 Atom  14 batch   13 overlaps  21 atoms and   44 shells. NGrid=         6
 Atom  11 batch    4 overlaps  21 atoms and   39 shells. NGrid=         6
 Atom  14 batch   14 overlaps  21 atoms and   45 shells. NGrid=         6
 Atom  11 batch    5 overlaps  21 atoms and   39 shells. NGrid=         6
 Atom  14 batch   15 overlaps  21 atoms and   46 shells. NGrid=        38
 Atom  11 batch    6 overlaps  21 atoms and   39 shells. NGrid=         6
 Atom  11 batch    7 overlaps  21 atoms and   39 shells. NGrid=         6
 Atom   4 batch   38 overlaps  21 atoms and   59 shells. NGrid=        86
 Atom  11 batch    8 overlaps  21 atoms and   39 shells. NGrid=         6
 Atom  19 batch   40 overlaps  21 atoms and   46 shells. NGrid=        86
 Atom  11 batch    9 overlaps  21 atoms and   39 shells. NGrid=         6
 Atom  14 batch   16 overlaps  21 atoms and   46 shells. NGrid=        38
 Atom   2 batch   24 overlaps  21 atoms and   43 shells. NGrid=        86
 Atom  11 batch   10 overlaps  21 atoms and   39 shells. NGrid=         6
 Atom  11 batch   11 overlaps  21 atoms and   39 shells. NGrid=         6
 Atom  16 batch   34 overlaps  21 atoms and   63 shells. NGrid=        86
 Atom  14 batch   17 overlaps  21 atoms and   46 shells. NGrid=        38
 Atom  11 batch   12 overlaps  21 atoms and   39 shells. NGrid=         6
 Atom  11 batch   13 overlaps  21 atoms and   39 shells. NGrid=         6
 Atom  11 batch   14 overlaps  21 atoms and   39 shells. NGrid=         6
 Atom  14 batch   18 overlaps  21 atoms and   46 shells. NGrid=        38
 Atom  11 batch   15 overlaps  21 atoms and   39 shells. NGrid=         6
 Atom  11 batch   16 overlaps  21 atoms and   39 shells. NGrid=         6
 Atom   2 batch   25 overlaps  21 atoms and   43 shells. NGrid=        86
 Atom   4 batch   39 overlaps  21 atoms and   56 shells. NGrid=        86
 Atom  11 batch   17 overlaps  21 atoms and   39 shells. NGrid=        38
 Atom  14 batch   19 overlaps  21 atoms and   46 shells. NGrid=        38
 Atom  19 batch   41 overlaps  21 atoms and   29 shells. NGrid=        86
 Atom  11 batch   18 overlaps  21 atoms and   39 shells. NGrid=        38
 Atom   7 batch   34 overlaps  21 atoms and   63 shells. NGrid=        86
 Atom  14 batch   20 overlaps  21 atoms and   46 shells. NGrid=        38
 Atom  16 batch   35 overlaps  21 atoms and   63 shells. NGrid=        86
 Atom  11 batch   19 overlaps  21 atoms and   39 shells. NGrid=        38
 Atom   2 batch   26 overlaps  21 atoms and   43 shells. NGrid=       194
 Atom  14 batch   21 overlaps  21 atoms and   47 shells. NGrid=        38
 Atom  11 batch   20 overlaps  21 atoms and   41 shells. NGrid=        38
 Atom  19 batch   42 overlaps  21 atoms and   11 shells. NGrid=        86
 Atom   4 batch   40 overlaps  21 atoms and   47 shells. NGrid=        86
 Atom  11 batch   21 overlaps  21 atoms and   41 shells. NGrid=        38
 Atom  14 batch   22 overlaps  21 atoms and   48 shells. NGrid=        86
 Atom  11 batch   22 overlaps  21 atoms and   41 shells. NGrid=        86
 Atom  16 batch   36 overlaps  21 atoms and   61 shells. NGrid=        86
 Atom   7 batch   35 overlaps  21 atoms and   63 shells. NGrid=        86
 Pruned (  50, 194) grid will be used in numerical quadrature.
 Atom  20 batch    1 overlaps  21 atoms and   39 shells. NGrid=         6
 Atom  20 batch    2 overlaps  21 atoms and   39 shells. NGrid=         6
 Atom   4 batch   41 overlaps  21 atoms and   31 shells. NGrid=        86
 Atom  20 batch    3 overlaps  21 atoms and   39 shells. NGrid=         6
 Atom  20 batch    4 overlaps  21 atoms and   39 shells. NGrid=         6
 Atom  11 batch   23 overlaps  21 atoms and   43 shells. NGrid=        86
 Atom  20 batch    5 overlaps  21 atoms and   39 shells. NGrid=         6
 Atom   2 batch   27 overlaps  21 atoms and   43 shells. NGrid=       194
 Atom  14 batch   23 overlaps  21 atoms and   48 shells. NGrid=        86
 Atom  20 batch    6 overlaps  21 atoms and   39 shells. NGrid=         6
 Atom  16 batch   37 overlaps  21 atoms and   56 shells. NGrid=        86
 Atom  20 batch    7 overlaps  21 atoms and   39 shells. NGrid=         6
 Atom   7 batch   36 overlaps  21 atoms and   60 shells. NGrid=        86
 Atom  20 batch    8 overlaps  21 atoms and   39 shells. NGrid=         6
 Atom  20 batch    9 overlaps  21 atoms and   39 shells. NGrid=         6
 Atom  20 batch   10 overlaps  21 atoms and   39 shells. NGrid=         6
 Atom  20 batch   11 overlaps  21 atoms and   39 shells. NGrid=         6
 Atom  20 batch   12 overlaps  21 atoms and   39 shells. NGrid=         6
 Atom  11 batch   24 overlaps  21 atoms and   43 shells. NGrid=        86
 Atom  20 batch   13 overlaps  21 atoms and   39 shells. NGrid=         6
 Atom   4 batch   42 overlaps  21 atoms and   14 shells. NGrid=        86
 Atom  20 batch   14 overlaps  21 atoms and   40 shells. NGrid=         6
 Atom  20 batch   15 overlaps  21 atoms and   40 shells. NGrid=         6
 Atom  16 batch   38 overlaps  21 atoms and   48 shells. NGrid=        86
 Atom  20 batch   16 overlaps  21 atoms and   40 shells. NGrid=         6
 Atom  14 batch   24 overlaps  21 atoms and   48 shells. NGrid=        86
 Atom   7 batch   37 overlaps  21 atoms and   54 shells. NGrid=        86
 Atom  20 batch   17 overlaps  21 atoms and   40 shells. NGrid=        38
 Atom   4 batch   43 overlaps  21 atoms and    0 shells. NGrid=        86
 Pruned (  50, 194) grid will be used in numerical quadrature.
 Atom  11 batch   25 overlaps  21 atoms and   43 shells. NGrid=        86
 Atom   5 batch    1 overlaps  21 atoms and   48 shells. NGrid=         6
 Atom  20 batch   18 overlaps  21 atoms and   40 shells. NGrid=        38
 Atom   2 batch   28 overlaps  21 atoms and   43 shells. NGrid=       194
 Atom  16 batch   39 overlaps  21 atoms and   42 shells. NGrid=        86
 Atom   5 batch    2 overlaps  21 atoms and   48 shells. NGrid=         6
 Atom  20 batch   19 overlaps  21 atoms and   40 shells. NGrid=        38
 Atom   7 batch   38 overlaps  21 atoms and   49 shells. NGrid=        86
 Atom   5 batch    3 overlaps  21 atoms and   48 shells. NGrid=         6
 Atom   5 batch    4 overlaps  21 atoms and   48 shells. NGrid=         6
 Atom  14 batch   25 overlaps  21 atoms and   50 shells. NGrid=       194
 Atom  20 batch   20 overlaps  21 atoms and   40 shells. NGrid=        38
 Atom   5 batch    5 overlaps  21 atoms and   48 shells. NGrid=         6
 Atom  11 batch   26 overlaps  21 atoms and   43 shells. NGrid=       194
 Atom   5 batch    6 overlaps  21 atoms and   48 shells. NGrid=         6
 Atom   5 batch    7 overlaps  21 atoms and   48 shells. NGrid=         6
 Atom  20 batch   21 overlaps  21 atoms and   40 shells. NGrid=        38
 Atom  16 batch   40 overlaps  21 atoms and   20 shells. NGrid=        86
 Atom   5 batch    8 overlaps  21 atoms and   48 shells. NGrid=         6
 Atom   7 batch   39 overlaps  21 atoms and   37 shells. NGrid=        86
 Atom   5 batch    9 overlaps  21 atoms and   48 shells. NGrid=         6
 Atom   5 batch   10 overlaps  21 atoms and   48 shells. NGrid=         6
 Atom  20 batch   22 overlaps  21 atoms and   41 shells. NGrid=        86
 Atom   5 batch   11 overlaps  21 atoms and   48 shells. NGrid=         6
 Atom   5 batch   12 overlaps  21 atoms and   48 shells. NGrid=         6
 Atom   5 batch   13 overlaps  21 atoms and   48 shells. NGrid=         6
 Atom   2 batch   29 overlaps  21 atoms and   43 shells. NGrid=       194
 Atom   5 batch   14 overlaps  21 atoms and   48 shells. NGrid=         6
 Atom   7 batch   40 overlaps  21 atoms and   20 shells. NGrid=        86
 Atom  16 batch   41 overlaps  21 atoms and    7 shells. NGrid=        86
 Atom   5 batch   15 overlaps  21 atoms and   48 shells. NGrid=        38
 Atom   5 batch   16 overlaps  21 atoms and   48 shells. NGrid=        38
 Atom  20 batch   23 overlaps  21 atoms and   41 shells. NGrid=        86
 Pruned (  50, 194) grid will be used in numerical quadrature.
 Atom   7 batch   41 overlaps  21 atoms and    7 shells. NGrid=        86
 Atom  17 batch    1 overlaps  21 atoms and   45 shells. NGrid=         6
 Atom   5 batch   17 overlaps  21 atoms and   48 shells. NGrid=        38
 Atom  17 batch    2 overlaps  21 atoms and   45 shells. NGrid=         6
 Atom  11 batch   27 overlaps  21 atoms and   43 shells. NGrid=       194
 Atom   5 batch   18 overlaps  21 atoms and   48 shells. NGrid=        38
 Atom  17 batch    3 overlaps  21 atoms and   45 shells. NGrid=         6
 Atom  17 batch    4 overlaps  21 atoms and   45 shells. NGrid=         6
 Pruned (  50, 194) grid will be used in numerical quadrature.
 Atom  17 batch    5 overlaps  21 atoms and   45 shells. NGrid=         6
 Atom  14 batch   26 overlaps  21 atoms and   54 shells. NGrid=       194
 Atom   5 batch   19 overlaps  21 atoms and   48 shells. NGrid=        38
 Atom  20 batch   24 overlaps  21 atoms and   41 shells. NGrid=        86
 Atom  17 batch    6 overlaps  21 atoms and   45 shells. NGrid=         6
 Atom   8 batch    1 overlaps  21 atoms and   45 shells. NGrid=         6
 Atom  17 batch    7 overlaps  21 atoms and   45 shells. NGrid=         6
 Atom  17 batch    8 overlaps  21 atoms and   45 shells. NGrid=         6
 Atom   2 batch   30 overlaps  21 atoms and   43 shells. NGrid=       194
 Atom   5 batch   20 overlaps  21 atoms and   49 shells. NGrid=        38
 Atom  17 batch    9 overlaps  21 atoms and   45 shells. NGrid=         6
 Atom   8 batch    2 overlaps  21 atoms and   45 shells. NGrid=         6
 Atom  17 batch   10 overlaps  21 atoms and   45 shells. NGrid=         6
 Atom   8 batch    3 overlaps  21 atoms and   45 shells. NGrid=         6
 Atom  17 batch   11 overlaps  21 atoms and   45 shells. NGrid=         6
 Atom   8 batch    4 overlaps  21 atoms and   45 shells. NGrid=         6
 Atom  17 batch   12 overlaps  21 atoms and   45 shells. NGrid=         6
 Atom   5 batch   21 overlaps  21 atoms and   50 shells. NGrid=        38
 Atom   8 batch    5 overlaps  21 atoms and   45 shells. NGrid=         6
 Atom  17 batch   13 overlaps  21 atoms and   45 shells. NGrid=         6
 Atom   8 batch    6 overlaps  21 atoms and   45 shells. NGrid=         6
 Atom  17 batch   14 overlaps  21 atoms and   45 shells. NGrid=         6
 Atom  20 batch   25 overlaps  21 atoms and   42 shells. NGrid=        86
 Atom   8 batch    7 overlaps  21 atoms and   45 shells. NGrid=         6
 Atom  17 batch   15 overlaps  21 atoms and   45 shells. NGrid=         6
 Atom   8 batch    8 overlaps  21 atoms and   45 shells. NGrid=         6
 Atom  17 batch   16 overlaps  21 atoms and   45 shells. NGrid=         6
 Atom   5 batch   22 overlaps  21 atoms and   50 shells. NGrid=        86
 Atom   8 batch    9 overlaps  21 atoms and   45 shells. NGrid=         6
 Atom  17 batch   17 overlaps  21 atoms and   45 shells. NGrid=        38
 Atom   8 batch   10 overlaps  21 atoms and   45 shells. NGrid=         6
 Atom   8 batch   11 overlaps  21 atoms and   45 shells. NGrid=         6
 Atom  11 batch   28 overlaps  21 atoms and   43 shells. NGrid=       194
 Atom   8 batch   12 overlaps  21 atoms and   45 shells. NGrid=         6
 Atom  17 batch   18 overlaps  21 atoms and   45 shells. NGrid=        38
 Atom   8 batch   13 overlaps  21 atoms and   45 shells. NGrid=         6
 Atom   8 batch   14 overlaps  21 atoms and   46 shells. NGrid=         6
 Atom  17 batch   19 overlaps  21 atoms and   45 shells. NGrid=        38
 Atom   8 batch   15 overlaps  21 atoms and   46 shells. NGrid=        38
 Atom  20 batch   26 overlaps  21 atoms and   43 shells. NGrid=       194
 Atom  17 batch   20 overlaps  21 atoms and   46 shells. NGrid=        38
 Atom   2 batch   31 overlaps  21 atoms and   45 shells. NGrid=       194
 Atom  14 batch   27 overlaps  21 atoms and   54 shells. NGrid=       194
 Atom   5 batch   23 overlaps  21 atoms and   50 shells. NGrid=        86
 Atom   8 batch   16 overlaps  21 atoms and   48 shells. NGrid=        38
 Atom  17 batch   21 overlaps  21 atoms and   49 shells. NGrid=        38
 Atom   8 batch   17 overlaps  21 atoms and   48 shells. NGrid=        38
 Atom  17 batch   22 overlaps  21 atoms and   49 shells. NGrid=        86
 Atom   8 batch   18 overlaps  21 atoms and   48 shells. NGrid=        38
 Atom   8 batch   19 overlaps  21 atoms and   48 shells. NGrid=        38
 Atom   5 batch   24 overlaps  21 atoms and   50 shells. NGrid=        86
 Atom  11 batch   29 overlaps  21 atoms and   45 shells. NGrid=       194
 Atom   8 batch   20 overlaps  21 atoms and   48 shells. NGrid=        38
 Atom  17 batch   23 overlaps  21 atoms and   49 shells. NGrid=        86
 Atom   8 batch   21 overlaps  21 atoms and   48 shells. NGrid=        38
 Atom  20 batch   27 overlaps  21 atoms and   44 shells. NGrid=       194
 Atom   2 batch   32 overlaps  21 atoms and   45 shells. NGrid=       194
 Atom   8 batch   22 overlaps  21 atoms and   48 shells. NGrid=        86
 Atom   5 batch   25 overlaps  21 atoms and   50 shells. NGrid=       194
 Atom  17 batch   24 overlaps  21 atoms and   49 shells. NGrid=        86
 Atom  14 batch   28 overlaps  21 atoms and   54 shells. NGrid=       194
 Atom   8 batch   23 overlaps  21 atoms and   51 shells. NGrid=        86
 Atom  11 batch   30 overlaps  21 atoms and   48 shells. NGrid=       194
 Atom  17 batch   25 overlaps  21 atoms and   51 shells. NGrid=        86
 Atom  20 batch   28 overlaps  21 atoms and   44 shells. NGrid=       194
 Atom   8 batch   24 overlaps  21 atoms and   53 shells. NGrid=        86
 Atom   2 batch   33 overlaps  21 atoms and   47 shells. NGrid=       194
 Atom   5 batch   26 overlaps  21 atoms and   54 shells. NGrid=       194
 Atom  17 batch   26 overlaps  21 atoms and   51 shells. NGrid=       194
 Atom  14 batch   29 overlaps  21 atoms and   55 shells. NGrid=       194
 Atom   8 batch   25 overlaps  21 atoms and   53 shells. NGrid=       194
 Atom  11 batch   31 overlaps  21 atoms and   48 shells. NGrid=       194
 Atom  20 batch   29 overlaps  21 atoms and   45 shells. NGrid=       194
 Atom   2 batch   34 overlaps  21 atoms and   51 shells. NGrid=       194
 Atom   5 batch   27 overlaps  21 atoms and   55 shells. NGrid=       194
 Atom  17 batch   27 overlaps  21 atoms and   52 shells. NGrid=       194
 Atom   8 batch   26 overlaps  21 atoms and   56 shells. NGrid=       194
 Atom  14 batch   30 overlaps  21 atoms and   57 shells. NGrid=       194
 Atom  11 batch   32 overlaps  21 atoms and   52 shells. NGrid=       194
 Atom   5 batch   28 overlaps  21 atoms and   55 shells. NGrid=       194
 Atom  20 batch   30 overlaps  21 atoms and   46 shells. NGrid=       194
 Atom   2 batch   35 overlaps  21 atoms and   55 shells. NGrid=        86
 Atom  17 batch   28 overlaps  21 atoms and   52 shells. NGrid=       194
 Atom   8 batch   27 overlaps  21 atoms and   57 shells. NGrid=       194
 Atom  14 batch   31 overlaps  21 atoms and   58 shells. NGrid=       194
 Atom   2 batch   36 overlaps  21 atoms and   57 shells. NGrid=        86
 Atom  11 batch   33 overlaps  21 atoms and   52 shells. NGrid=       194
 Atom   5 batch   29 overlaps  21 atoms and   55 shells. NGrid=       194
 Atom  17 batch   29 overlaps  21 atoms and   54 shells. NGrid=       194
 Atom   2 batch   37 overlaps  21 atoms and   59 shells. NGrid=        86
 Atom  20 batch   31 overlaps  21 atoms and   48 shells. NGrid=       194
 Atom   8 batch   28 overlaps  21 atoms and   57 shells. NGrid=       194
 Atom   2 batch   38 overlaps  21 atoms and   59 shells. NGrid=        86
 Atom  14 batch   32 overlaps  21 atoms and   59 shells. NGrid=       194
 Atom  11 batch   34 overlaps  21 atoms and   55 shells. NGrid=       194
 Atom   2 batch   39 overlaps  21 atoms and   56 shells. NGrid=        86
 Atom   5 batch   30 overlaps  21 atoms and   58 shells. NGrid=       194
 Atom  17 batch   30 overlaps  21 atoms and   55 shells. NGrid=       194
 Atom  20 batch   32 overlaps  21 atoms and   51 shells. NGrid=       194
 Atom   8 batch   29 overlaps  21 atoms and   57 shells. NGrid=       194
 Atom   2 batch   40 overlaps  21 atoms and   48 shells. NGrid=        86
 Atom   2 batch   41 overlaps  21 atoms and   32 shells. NGrid=        86
 Atom  14 batch   33 overlaps  21 atoms and   60 shells. NGrid=       194
 Atom  11 batch   35 overlaps  21 atoms and   56 shells. NGrid=        86
 Atom  17 batch   31 overlaps  21 atoms and   55 shells. NGrid=       194
 Atom   5 batch   31 overlaps  21 atoms and   60 shells. NGrid=       194
 Atom   2 batch   42 overlaps  21 atoms and   13 shells. NGrid=        86
 Atom   8 batch   30 overlaps  21 atoms and   57 shells. NGrid=       194
 Atom  20 batch   33 overlaps  21 atoms and   53 shells. NGrid=       194
 Atom  11 batch   36 overlaps  21 atoms and   59 shells. NGrid=        86
 Atom   2 batch   43 overlaps  21 atoms and    0 shells. NGrid=        86
 Pruned (  50, 194) grid will be used in numerical quadrature.
 Atom   3 batch    1 overlaps  21 atoms and   44 shells. NGrid=         6
 Atom   3 batch    2 overlaps  21 atoms and   44 shells. NGrid=         6
 Atom   3 batch    3 overlaps  21 atoms and   44 shells. NGrid=         6
 Atom   3 batch    4 overlaps  21 atoms and   44 shells. NGrid=         6
 Atom   3 batch    5 overlaps  21 atoms and   44 shells. NGrid=         6
 Atom   3 batch    6 overlaps  21 atoms and   44 shells. NGrid=         6
 Atom  11 batch   37 overlaps  21 atoms and   60 shells. NGrid=        86
 Atom  14 batch   34 overlaps  21 atoms and   60 shells. NGrid=        86
 Atom   3 batch    7 overlaps  21 atoms and   44 shells. NGrid=         6
 Atom   3 batch    8 overlaps  21 atoms and   44 shells. NGrid=         6
 Atom   3 batch    9 overlaps  21 atoms and   44 shells. NGrid=         6
 Atom   3 batch   10 overlaps  21 atoms and   44 shells. NGrid=         6
 Atom   3 batch   11 overlaps  21 atoms and   44 shells. NGrid=         6
 Atom  17 batch   32 overlaps  21 atoms and   57 shells. NGrid=       194
 Atom   5 batch   32 overlaps  21 atoms and   62 shells. NGrid=       194
 Atom   3 batch   12 overlaps  21 atoms and   44 shells. NGrid=         6
 Atom   3 batch   13 overlaps  21 atoms and   44 shells. NGrid=         6
 Atom   8 batch   31 overlaps  21 atoms and   57 shells. NGrid=       194
 Atom   3 batch   14 overlaps  21 atoms and   44 shells. NGrid=         6
 Atom   3 batch   15 overlaps  21 atoms and   45 shells. NGrid=        38
 Atom  11 batch   38 overlaps  21 atoms and   60 shells. NGrid=        86
 Atom  14 batch   35 overlaps  21 atoms and   63 shells. NGrid=        86
 Atom   3 batch   16 overlaps  21 atoms and   45 shells. NGrid=        38
 Atom  20 batch   34 overlaps  21 atoms and   54 shells. NGrid=       194
 Atom   3 batch   17 overlaps  21 atoms and   45 shells. NGrid=        38
 Atom   3 batch   18 overlaps  21 atoms and   45 shells. NGrid=        38
 Atom  11 batch   39 overlaps  21 atoms and   55 shells. NGrid=        86
 Atom   3 batch   19 overlaps  21 atoms and   45 shells. NGrid=        38
 Atom  14 batch   36 overlaps  21 atoms and   61 shells. NGrid=        86
 Atom   3 batch   20 overlaps  21 atoms and   45 shells. NGrid=        38
 Atom   3 batch   21 overlaps  21 atoms and   47 shells. NGrid=        38
 Atom   5 batch   33 overlaps  21 atoms and   62 shells. NGrid=       194
 Atom  17 batch   33 overlaps  21 atoms and   60 shells. NGrid=       194
 Atom  11 batch   40 overlaps  21 atoms and   46 shells. NGrid=        86
 Atom   8 batch   32 overlaps  21 atoms and   60 shells. NGrid=       194
 Atom  14 batch   37 overlaps  21 atoms and   57 shells. NGrid=        86
 Atom   3 batch   22 overlaps  21 atoms and   48 shells. NGrid=        86
 Atom  20 batch   35 overlaps  21 atoms and   58 shells. NGrid=        86
 Atom  14 batch   38 overlaps  21 atoms and   52 shells. NGrid=        86
 Atom  11 batch   41 overlaps  21 atoms and   30 shells. NGrid=        86
 Atom   3 batch   23 overlaps  21 atoms and   48 shells. NGrid=        86
 Atom  14 batch   39 overlaps  21 atoms and   42 shells. NGrid=        86
 Atom  11 batch   42 overlaps  21 atoms and   10 shells. NGrid=        86
 Atom   3 batch   24 overlaps  21 atoms and   48 shells. NGrid=        86
 Atom  20 batch   36 overlaps  21 atoms and   59 shells. NGrid=        86
[...]
     87   0.444166D-04 -0.789144D-04  0.120403D-03
     88  -0.307593D+00  0.133067D+00  0.256704D+00
     89  -0.448165D-03  0.440919D-03 -0.287012D-03
     90   0.113589D-03 -0.121495D-03 -0.504656D-04
     91   0.258522D-03 -0.266256D-03  0.322208D-03
     92  -0.453609D-01  0.122671D+00  0.687470D+00
     93   0.291894D-05 -0.545427D-05  0.106114D-04
     94   0.000000D+00  0.144448D-04  0.395573D-05
     95   0.000000D+00 -0.100451D-04 -0.995247D-05
     96  -0.559634D-05 -0.178086D-04 -0.252808D-05
     97   0.121525D-03 -0.325566D-01  0.380836D-01
     98   0.157135D-02  0.848516D-01 -0.113418D-01
     99   0.221652D-04 -0.512816D-04  0.464723D-04
    100  -0.412563D-05 -0.704658D-04  0.148346D-03
    101  -0.341096D-04  0.504395D-04 -0.370912D-04
    102   0.114261D-03 -0.105660D-03  0.157694D-03
    103   0.932811D-04  0.382340D-04  0.363455D-04
    104   0.330287D-04 -0.127559D-03  0.139695D-03
    105   0.640003D-01 -0.256688D+00  0.678336D+00
    106   0.341044D-03 -0.665301D-03  0.558808D-04
    107  -0.184697D-03  0.127046D-03  0.190545D-03
    108   0.177665D-03 -0.120986D-03 -0.591137D-05
    109  -0.110068D+00 -0.553806D+00  0.567604D+00
    110   0.294786D-05  0.101758D-04  0.117587D-05
    111  -0.121755D-04  0.440500D-05 -0.114035D-04
    112  -0.241971D-05 -0.860941D-05  0.350289D-05
    113  -0.153262D-05  0.923610D-05  0.505615D-05
    114   0.441377D-02  0.388118D-01  0.814431D-01
    115   0.266433D-02  0.378440D-01  0.324923D-01
    116   0.131468D-04 -0.296852D-04 -0.631258D-04
    117  -0.339060D-04  0.102916D-03  0.116856D-03
    118  -0.126908D-04  0.139424D-03  0.119154D-03
    119  -0.178951D-04 -0.682359D-04  0.149790D-03
    120   0.221320D+00 -0.252989D+00 -0.101063D+01
    121  -0.176280D-03  0.260223D-03  0.497898D-03
    122  -0.914315D-04  0.347686D-04  0.358783D-03
    123  -0.107038D-03  0.464450D-04  0.300883D-04
    124   0.279060D+00 -0.283008D+00 -0.106595D+01
    125   0.284944D-05 -0.176561D-05  0.106210D-05
    126  -0.860567D-05  0.704638D-05 -0.873296D-05
    127   0.872313D-05 -0.943247D-05  0.000000D+00
    128   0.348853D-05 -0.213113D-04  0.550788D-05
    129  -0.555562D-02 -0.331970D-01  0.357824D-01
    130   0.287653D-01 -0.241335D-01 -0.696827D-01
    131  -0.131548D-04 -0.228434D-04 -0.382513D-05
    132   0.321433D-04  0.439968D-04  0.272816D-04
    133  -0.347820D-04  0.918048D-04  0.806361D-04
    134   0.179563D-04  0.000000D+00 -0.191922D-04
    135  -0.149444D+00 -0.474294D-01  0.707026D+00
    136   0.206054D-03  0.253891D-03 -0.754764D-04
    137  -0.473776D-04  0.211103D-03 -0.137134D-03
    138   0.323514D-04  0.791203D-04 -0.571366D-04
    139  -0.280926D+00  0.342291D+00  0.665061D+00
    140   0.000000D+00  0.000000D+00  0.000000D+00
    141   0.194794D-05  0.822086D-05  0.333541D-05
    142  -0.261044D-05 -0.112742D-04 -0.332986D-05
    143   0.360386D-05 -0.131071D-04 -0.322998D-05
    144   0.274230D-01  0.518942D-01  0.225455D-01
    145  -0.533490D-02 -0.232423D-01 -0.264417D-01
    146   0.182260D-05  0.203874D-04  0.324893D-05
    147  -0.940716D-05  0.177496D-05 -0.384787D-04
    148  -0.317366D-05  0.452810D-04  0.168450D-04
    149   0.147626D-04 -0.764252D-04 -0.465508D-04
    150   0.131942D-04  0.274450D-04 -0.395874D-04
    151   0.469934D-04 -0.288845D-04 -0.494555D-04
    152  -0.280078D+00  0.339841D+00  0.552439D+00
    153  -0.688598D-04 -0.497720D-03  0.749451D-04
    154   0.102962D-03 -0.279808D-04 -0.167747D-03
    155  -0.293423D-04 -0.170475D-04  0.882146D-04
    156  -0.166081D+00  0.397891D+00  0.407746D+00
    157   0.919563D-05  0.132891D-04 -0.387658D-05
    158  -0.680789D-05 -0.108798D-05 -0.191192D-05
    159   0.000000D+00  0.000000D+00  0.522199D-05
    160   0.000000D+00  0.285463D-05  0.538392D-05
    161   0.522089D-01 -0.233077D-01 -0.620412D-01
    162   0.315084D-01 -0.848546D-02 -0.684115D-01
    163   0.431033D-05  0.201980D-04 -0.619380D-05
    164  -0.160935D-04  0.121571D-03  0.108021D-03
    165   0.185219D-04  0.219059D-05  0.321645D-04
    166  -0.225598D-04 -0.399420D-04 -0.261886D-04
    167   0.417953D-04 -0.214941D-04  0.518426D-04
    168  -0.227120D-04  0.206721D-05 -0.327101D-04
    169   0.161161D+00  0.478667D-01  0.256663D+00
    170  -0.625803D-04  0.892549D-04 -0.439160D-03
    171   0.493517D-04 -0.127836D-03  0.562128D-04
    172   0.421453D-04  0.946232D-04 -0.800558D-04
    173   0.241355D+00  0.136141D+00  0.627425D+00
    174   0.541966D-05  0.477540D-05  0.620481D-05
    175   0.579172D-05  0.000000D+00  0.166065D-04
    176  -0.221248D-05 -0.762229D-05 -0.137341D-04
    177  -0.172533D-05  0.388278D-05 -0.409346D-05
    178   0.291180D-02  0.119664D-01 -0.116061D-01
    179   0.391276D-02  0.626398D-02  0.759055D-01
    180  -0.958524D-01 -0.716525D-01 -0.355240D+00
    181  -0.278228D+00 -0.113779D+00 -0.106784D+01
    182   0.959146D-01  0.716365D-01  0.355302D+00
    183   0.278336D+00  0.113779D+00  0.106801D+01
    184  -0.985284D-05 -0.914119D-05  0.000000D+00
    185  -0.330729D-04  0.126759D-03  0.499201D-04
 End of Minotr F.D. properties file   721 does not exist.
 End of Minotr F.D. properties file   722 does not exist.
 End of Minotr F.D. properties file   788 does not exist.
 Leave Link 1002 at Fri May 28 14:01:43 2021, MaxMem=  1342177280 cpu:              32.6 elap:               4.2
 (Enter /home/wangzhe/g16/l601.exe)
 Copying SCF densities to generalized density rwf, IOpCl= 0 IROHF=0.

 **********************************************************************

            Population analysis using the SCF Density.

 **********************************************************************

 Orbital symmetries:
       Occupied  (A) (A) (A) (A) (A) (A) (A) (A) (A) (A) (A) (A)
                 (A) (A) (A) (A) (A) (A) (A) (A) (A) (A) (A) (A)
                 (A) (A) (A) (A) (A) (A) (A) (A) (A) (A) (A) (A)
                 (A) (A)
       Virtual   (A) (A) (A) (A) (A) (A) (A) (A) (A) (A) (A) (A)
                 (A) (A) (A) (A) (A) (A) (A) (A) (A) (A) (A) (A)
                 (A) (A) (A) (A) (A) (A) (A) (A) (A) (A) (A) (A)
                 (A) (A) (A) (A) (A) (A) (A) (A) (A) (A) (A) (A)
                 (A) (A) (A) (A) (A) (A) (A) (A) (A) (A) (A) (A)
                 (A) (A) (A) (A) (A) (A) (A) (A) (A) (A) (A) (A)
                 (A) (A) (A) (A) (A) (A) (A) (A) (A) (A) (A) (A)
                 (A) (A) (A) (A) (A) (A) (A) (A) (A) (A) (A) (A)
                 (A) (A) (A) (A) (A) (A) (A) (A) (A) (A) (A) (A)
                 (A) (A) (A) (A) (A) (A) (A) (A) (A) (A) (A) (A)
                 (A) (A) (A) (A) (A) (A) (A) (A) (A) (A) (A) (A)
                 (A) (A) (A) (A) (A) (A) (A) (A) (A) (A) (A) (A)
                 (A) (A) (A)
 The electronic state is 1-A.
 Alpha  occ. eigenvalues --  -10.20379 -10.20373 -10.20291 -10.19294 -10.19286
 Alpha  occ. eigenvalues --  -10.18890 -10.18662 -10.17900 -10.17850 -10.17458
 Alpha  occ. eigenvalues --  -10.16704  -0.87103  -0.81960  -0.78480  -0.74046
 Alpha  occ. eigenvalues --   -0.72646  -0.67104  -0.64006  -0.60355  -0.54389
 Alpha  occ. eigenvalues --   -0.53255  -0.50629  -0.48129  -0.45174  -0.44551
 Alpha  occ. eigenvalues --   -0.41522  -0.40972  -0.39491  -0.38070  -0.37297
 Alpha  occ. eigenvalues --   -0.36680  -0.35943  -0.34453  -0.32429  -0.32192
 Alpha  occ. eigenvalues --   -0.29342  -0.22660  -0.18366
 Alpha virt. eigenvalues --   -0.06437  -0.03275   0.08141   0.08971   0.10869
 Alpha virt. eigenvalues --    0.12418   0.13405   0.14115   0.15194   0.16265
 Alpha virt. eigenvalues --    0.16385   0.18260   0.19519   0.20055   0.20317
 Alpha virt. eigenvalues --    0.23831   0.25264   0.28164   0.30417   0.31761
 Alpha virt. eigenvalues --    0.35307   0.37301   0.39953   0.42412   0.43956
 Alpha virt. eigenvalues --    0.48399   0.50552   0.51656   0.52869   0.54375
 Alpha virt. eigenvalues --    0.54856   0.56738   0.58371   0.58753   0.59821
 Alpha virt. eigenvalues --    0.60823   0.61830   0.61954   0.62777   0.63480
 Alpha virt. eigenvalues --    0.63697   0.65797   0.66692   0.68347   0.69953
 Alpha virt. eigenvalues --    0.72803   0.75171   0.76366   0.78018   0.81709
 Alpha virt. eigenvalues --    0.83481   0.83757   0.84477   0.85322   0.86236
 Alpha virt. eigenvalues --    0.87205   0.88602   0.89047   0.90787   0.92586
 Alpha virt. eigenvalues --    0.96196   0.97503   0.98366   1.01578   1.02855
 Alpha virt. eigenvalues --    1.03928   1.06041   1.08813   1.09838   1.16115
 Alpha virt. eigenvalues --    1.17654   1.21160   1.29005   1.29489   1.30699
 Alpha virt. eigenvalues --    1.33879   1.36493   1.38446   1.39321   1.42530
 Alpha virt. eigenvalues --    1.42683   1.44755   1.47963   1.48643   1.51446
 Alpha virt. eigenvalues --    1.55735   1.56043   1.61643   1.66804   1.68793
 Alpha virt. eigenvalues --    1.74520   1.78641   1.82690   1.83009   1.86089
 Alpha virt. eigenvalues --    1.89542   1.90023   1.91725   1.95186   1.97252
 Alpha virt. eigenvalues --    1.98370   2.01565   2.04998   2.06310   2.06737
 Alpha virt. eigenvalues --    2.10610   2.14099   2.16164   2.20492   2.22480
 Alpha virt. eigenvalues --    2.23110   2.24971   2.27907   2.32755   2.35085
 Alpha virt. eigenvalues --    2.36563   2.38696   2.43871   2.43959   2.48704
 Alpha virt. eigenvalues --    2.50510   2.55873   2.56055   2.66309   2.70271
 Alpha virt. eigenvalues --    2.72926   2.73820   2.76308   2.77989   2.85412
 Alpha virt. eigenvalues --    2.90123   2.94751   3.11023   3.22113   3.31625
 Alpha virt. eigenvalues --    3.34504   4.04949   4.10306   4.12471   4.14282
 Alpha virt. eigenvalues --    4.16365   4.25296   4.26880   4.34098   4.54323
 Alpha virt. eigenvalues --    4.64059   4.75187
          Condensed to atoms (all electrons):
               1          2          3          4          5          6
     1  C    4.860588   0.353409   0.524204  -0.043505  -0.029047   0.006165
     2  H    0.353409   0.605422  -0.043591  -0.009190   0.006157  -0.000211
     3  C    0.524204  -0.043591   4.920527   0.355622   0.476070  -0.049609
     4  H   -0.043505  -0.009190   0.355622   0.604941  -0.040402  -0.008290
     5  C   -0.029047   0.006157   0.476070  -0.040402   5.146694   0.351732
     6  H    0.006165  -0.000211  -0.049609  -0.008290   0.351732   0.607038
     7  C   -0.015235  -0.000038   0.005818   0.005113   0.436706  -0.042066
     8  C    0.000087   0.000002   0.006971  -0.000195  -0.105887  -0.011203
     9  H    0.000008  -0.000000   0.000049  -0.000002  -0.007119   0.005064
    10  C    0.000019  -0.000000  -0.000239   0.000003   0.008020   0.000040
    11  H   -0.000000   0.000000   0.000003  -0.000000  -0.000153  -0.000007
    12  C   -0.000070   0.000002  -0.000723   0.000000   0.018432  -0.000009
    13  C   -0.015858  -0.000008  -0.009715  -0.000021  -0.047760   0.005551
    14  C    0.529158  -0.043050  -0.037189   0.006086  -0.006671  -0.000033
    15  H   -0.043200  -0.009275   0.006062  -0.000198  -0.000035   0.000004
    16  C   -0.027373   0.006227  -0.007111  -0.000050  -0.033648  -0.000365
    17  H    0.006152  -0.000215  -0.000011   0.000004  -0.000399   0.000005
    18  C   -0.000007   0.000000   0.000004  -0.000000  -0.000201   0.000002
    19  H    0.000001   0.000000  -0.000001  -0.000000   0.000002   0.000000
    20  H    0.000001   0.000000  -0.000001  -0.000000   0.000002   0.000000
    21  H    0.000000  -0.000000  -0.000000   0.000000   0.000004  -0.000000
               7          8          9         10         11         12
     1  C   -0.015235   0.000087   0.000008   0.000019  -0.000000  -0.000070
     2  H   -0.000038   0.000002  -0.000000  -0.000000   0.000000   0.000002
     3  C    0.005818   0.006971   0.000049  -0.000239   0.000003  -0.000723
     4  H    0.005113  -0.000195  -0.000002   0.000003  -0.000000   0.000000
     5  C    0.436706  -0.105887  -0.007119   0.008020  -0.000153   0.018432
     6  H   -0.042066  -0.011203   0.005064   0.000040  -0.000007  -0.000009
     7  C    4.846299   0.476472  -0.044892  -0.055656   0.004651   0.002110
     8  C    0.476472   5.157928   0.358949   0.479214  -0.046123  -0.095393
     9  H   -0.044892   0.358949   0.603652  -0.044319  -0.002410   0.003870
    10  C   -0.055656   0.479214  -0.044319   5.017090   0.351251   0.502813
    11  H    0.004651  -0.046123  -0.002410   0.351251   0.608522  -0.042901
    12  C    0.002110  -0.095393   0.003870   0.502813  -0.042901   4.917180
    13  C    0.330096  -0.047331   0.006813   0.003305   0.007677   0.439140
    14  C   -0.008655  -0.000661  -0.000006  -0.000268   0.000003   0.007278
    15  H   -0.000026   0.000001  -0.000000   0.000003  -0.000000  -0.000167
    16  C   -0.073653   0.019596  -0.000119   0.013356  -0.000158  -0.118677
    17  H    0.005592  -0.000034   0.000005   0.000077  -0.000008  -0.017708
    18  C    0.009605   0.008432  -0.000135  -0.084450  -0.006094   0.356113
    19  H   -0.000148  -0.000055   0.000003   0.001304   0.000008  -0.026177
    20  H   -0.000148  -0.000055   0.000003   0.001302   0.000008  -0.026184
    21  H    0.000055  -0.000246  -0.000008  -0.003205   0.004955  -0.025511
              13         14         15         16         17         18
     1  C   -0.015858   0.529158  -0.043200  -0.027373   0.006152  -0.000007
     2  H   -0.000008  -0.043050  -0.009275   0.006227  -0.000215   0.000000
     3  C   -0.009715  -0.037189   0.006062  -0.007111  -0.000011   0.000004
     4  H   -0.000021   0.006086  -0.000198  -0.000050   0.000004  -0.000000
     5  C   -0.047760  -0.006671  -0.000035  -0.033648  -0.000399  -0.000201
     6  H    0.005551  -0.000033   0.000004  -0.000365   0.000005   0.000002
     7  C    0.330096  -0.008655  -0.000026  -0.073653   0.005592   0.009605
     8  C   -0.047331  -0.000661   0.000001   0.019596  -0.000034   0.008432
     9  H    0.006813  -0.000006  -0.000000  -0.000119   0.000005  -0.000135
    10  C    0.003305  -0.000268   0.000003   0.013356   0.000077  -0.084450
    11  H    0.007677   0.000003  -0.000000  -0.000158  -0.000008  -0.006094
    12  C    0.439140   0.007278  -0.000167  -0.118677  -0.017708   0.356113
    13  C    4.930353   0.006991   0.005132   0.432236  -0.039184  -0.076710
    14  C    0.006991   4.913923   0.356363   0.470990  -0.050672   0.000119
    15  H    0.005132   0.356363   0.605419  -0.041318  -0.008054   0.000001
    16  C    0.432236   0.470990  -0.041318   5.205721   0.350776  -0.018708
    17  H   -0.039184  -0.050672  -0.008054   0.350776   0.607789   0.007163
    18  C   -0.076710   0.000119   0.000001  -0.018708   0.007163   5.252209
    19  H   -0.003311   0.000048  -0.000000   0.001898   0.001640   0.359312
    20  H   -0.003311   0.000048  -0.000000   0.001895   0.001642   0.359315
    21  H    0.003055   0.000001  -0.000000   0.000108  -0.000159   0.365443
              19         20         21
     1  C    0.000001   0.000001   0.000000
     2  H    0.000000   0.000000  -0.000000
     3  C   -0.000001  -0.000001  -0.000000
     4  H   -0.000000  -0.000000   0.000000
     5  C    0.000002   0.000002   0.000004
     6  H    0.000000   0.000000  -0.000000
     7  C   -0.000148  -0.000148   0.000055
     8  C   -0.000055  -0.000055  -0.000246
     9  H    0.000003   0.000003  -0.000008
    10  C    0.001304   0.001302  -0.003205
    11  H    0.000008   0.000008   0.004955
    12  C   -0.026177  -0.026184  -0.025511
    13  C   -0.003311  -0.003311   0.003055
    14  C    0.000048   0.000048   0.000001
    15  H   -0.000000  -0.000000  -0.000000
    16  C    0.001898   0.001895   0.000108
    17  H    0.001640   0.001642  -0.000159
    18  C    0.359312   0.359315   0.365443
    19  H    0.575487  -0.038193  -0.028548
    20  H   -0.038193   0.575488  -0.028544
    21  H   -0.028548  -0.028544   0.558290
 Mulliken charges:
               1
     1  C   -0.105496
     2  H    0.134358
     3  C   -0.147141
     4  H    0.130085
     5  C   -0.172497
     6  H    0.136192
     7  C    0.118000
     8  C   -0.200467
     9  H    0.120596
    10  C   -0.189661
    11  H    0.120775
    12  C    0.106580
    13  C    0.072858
    14  C   -0.143802
    15  H    0.129288
    16  C   -0.181624
    17  H    0.135600
    18  C   -0.531416
    19  H    0.156731
    20  H    0.156732
    21  H    0.154309
 Sum of Mulliken charges =  -0.00000
 Mulliken charges with hydrogens summed into heavy atoms:
               1
     1  C    0.028862
     3  C   -0.017056
     5  C   -0.036305
     7  C    0.118000
     8  C   -0.079872
    10  C   -0.068886
    12  C    0.106580
    13  C    0.072858
    14  C   -0.014514
    16  C   -0.046024
    18  C   -0.063644
 Electronic spatial extent (au):  <R**2>=           1677.6358
 Charge=             -0.0000 electrons
 Dipole moment (field-independent basis, Debye):
    X=             -0.6695    Y=             -0.5021    Z=              0.0000  Tot=              0.8369
 Quadrupole moment (field-independent basis, Debye-Ang):
   XX=            -56.9556   YY=            -57.8071   ZZ=            -68.4427
   XY=             -0.5325   XZ=             -0.0004   YZ=             -0.0000
 Traceless Quadrupole moment (field-independent basis, Debye-Ang):
   XX=              4.1129   YY=              3.2614   ZZ=             -7.3743
   XY=             -0.5325   XZ=             -0.0004   YZ=             -0.0000
 Octapole moment (field-independent basis, Debye-Ang**2):
  XXX=             -8.5559  YYY=              0.7942  ZZZ=              0.0008  XYY=             -4.5103
  XXY=              0.6801  XXZ=              0.0006  XZZ=              2.2973  YZZ=             -2.3539
  YYZ=             -0.0006  XYZ=             -0.0014
 Hexadecapole moment (field-independent basis, Debye-Ang**3):
 XXXX=          -1373.2732 YYYY=           -700.8840 ZZZZ=            -77.6918 XXXY=             14.3077
 XXXZ=             -0.0060 YYYX=              3.2533 YYYZ=              0.0006 ZZZX=              0.0018
 ZZZY=             -0.0014 XXYY=           -352.6338 XXZZ=           -279.4875 YYZZ=           -147.5256
 XXYZ=             -0.0016 YYXZ=             -0.0025 ZZXY=             -5.7631
 N-N= 5.422614686642D+02 E-N=-2.068492442570D+03  KE= 4.211255343156D+02
 Calculating spin-rotation constants.
 Leave Link  601 at Fri May 28 14:01:44 2021, MaxMem=  1342177280 cpu:               1.9 elap:               1.2
 (Enter /home/wangzhe/g16/l9999.exe)

 Test job not archived.
 1\1\GINC-RHEL-HPC\SP\RB3LYP\6-31G(d)\C11H10\WANGZHE\28-May-2021\0\\#p 
 nmr=giao rb3lyp/6-31g(d) iop(10/33=2) int=nobasistransform\\Title Card
  Required\\0,1\C,0,-2.681223,-0.695936,0.000026\H,0,-3.700245,-1.07886
 ,0.000044\C,0,-2.57389,0.695773,0.000118\H,0,-3.514548,1.240878,0.0001
 95\C,0,-1.421876,1.476723,0.000117\H,0,-1.579954,2.554847,0.000135\C,0
 ,-0.091255,1.075207,0.000022\C,0,1.021543,1.920539,-0.000066\H,0,0.986
 52,3.003032,-0.000113\C,0,2.17511,1.126197,-0.000164\H,0,3.192497,1.50
 4996,-0.000257\C,0,1.842302,-0.233664,0.000077\C,0,0.43671,-0.323263,-
 0.000152\C,0,-1.685544,-1.668846,-0.000093\H,0,-2.032353,-2.699281,-0.
 000099\C,0,-0.30028,-1.497213,-0.00018\H,0,0.283921,-2.417073,-0.00020
 1\C,0,2.80571,-1.383036,0.000219\H,0,2.681208,-2.021294,0.883616\H,0,2
 .681231,-2.02145,-0.883065\H,0,3.837881,-1.020675,0.0002\\Version=ES64
 L-G16RevB.01\State=1-A\HF=-425.1559001\RMSD=6.673e-09\Dipole=-0.263404
 2,-0.1975585,0.000006\Quadrupole=3.0578213,2.4247671,-5.4825884,-0.395
 9124,-0.0003004,-0.000005\PG=C01 [X(C11H10)]\\@


 IT PROBABLY IS NOT POSSIBLE FOR A SCIENTIST TO INTERROGATE NATURE 
 FROM A WHOLLY DISINTERESTED VIEWPOINT.
 EVEN IF HE HAS NO PARTICULAR AXE TO GRIND, HE IS LIKELY TO HAVE 
 A DISTINCTIVE WAY OF VIEWING NATURE.

                                                   -- JOHN LOSEE
 Job cpu time:       0 days  0 hours  1 minutes 43.5 seconds.
 Elapsed time:       0 days  0 hours  0 minutes 14.2 seconds.
 File lengths (MBytes):  RWF=     26 Int=      0 D2E=      0 Chk=      4 Scr=      1
 Normal termination of Gaussian 16 at Fri May 28 14:01:44 2021.
